 Gaussian 03, Revision D.01,
 Gaussian 03:  AM64L-G03RevD.01 13-Oct-2005

 ---------------------------------
 #N B3LYP/6-31G(d) OPT=(TS,CalcFC)
 ---------------------------------

 -----
 C6H9F
 -----
 Symbolic Z-matrix:
 Charge =  0 Multiplicity = 1

 SCF Done:  E(RB+HF-LYP) =  -333.768495631     A.U. after   14 cycles

  Exact polarizability:  77.855   1.110  77.343   1.654  -3.139  50.303
 Approx polarizability: 136.683   1.915 130.200   1.892  -4.885  75.551

 SCF Done:  E(RB+HF-LYP) =  -333.771450082     A.U. after   15 cycles
 SCF Done:  E(RB+HF-LYP) =  -333.772987501     A.U. after   13 cycles
 SCF Done:  E(RB+HF-LYP) =  -333.773444219     A.U. after   12 cycles
 SCF Done:  E(RB+HF-LYP) =  -333.773461890     A.U. after   11 cycles
 SCF Done:  E(RB+HF-LYP) =  -333.773463014     A.U. after    9 cycles
 SCF Done:  E(RB+HF-LYP) =  -333.773463107     A.U. after    8 cycles
 Optimization completed.
    -- Stationary point found.

                         Standard orientation:
 ---------------------------------------------------------------------
 Center     Atomic     Atomic              Coordinates (Angstroms)
 Number     Number      Type              X           Y           Z
 ---------------------------------------------------------------------
    1          6             0        0.272549    1.514271   -0.251468
    2          6             0        1.479210    1.048731    0.231956
    3          6             0        1.904108   -0.278390    0.037949
    4          6             0        1.116127   -1.202996   -0.632385
    5          6             0       -0.716558   -1.235708    0.561642
    6          6             0       -1.314291    0.007168    0.534071
    7          1             0       -1.437165    0.657122    1.390118
    8          9             0       -2.231152    0.254578   -0.445019
    9          1             0       -0.246864   -1.552035    1.484475
   10          1             0       -1.136367   -2.019868   -0.059801
   11          1             0        0.502248   -0.895467   -1.472912
   12          1             0        1.422703   -2.246100   -0.664890
   13          1             0        2.749089   -0.637258    0.623320
   14          1             0        2.026809    1.658930    0.949062
   15          1             0       -0.082382    2.503887    0.026925
   16          1             0       -0.164566    1.121134   -1.161712
 ---------------------------------------------------------------------

 The electronic state is 1-A.
 Alpha  occ. eigenvalues --  -24.68793 -10.26338 -10.19273 -10.19004 -10.18359
 Alpha  occ. eigenvalues --  -10.18072 -10.17925  -1.19617  -0.80539  -0.75147
 Alpha  occ. eigenvalues --   -0.71434  -0.62235  -0.59717  -0.52317  -0.50896
 Alpha  occ. eigenvalues --   -0.48982  -0.46248  -0.44621  -0.42650  -0.40193
 Alpha  occ. eigenvalues --   -0.39466  -0.36021  -0.35451  -0.35180  -0.33177
 Alpha  occ. eigenvalues --   -0.23531  -0.21072
 Alpha virt. eigenvalues --   -0.01448   0.01254   0.09758   0.10734   0.11657
 Alpha virt. eigenvalues --    0.13575   0.14566   0.15015   0.17328   0.19793
 Alpha virt. eigenvalues --    0.20273   0.23449   0.24159   0.28877   0.32452

 Mulliken atomic charges:
              1
     1  C   -0.380999
     2  C   -0.075476
     3  C   -0.086445
     4  C   -0.334451
     5  C   -0.369759
     6  C    0.183312
     7  H    0.154706
     8  F   -0.291798
     9  H    0.161940
    10  H    0.171313
    11  H    0.166111
    12  H    0.143710
    13  H    0.122088
    14  H    0.122775
    15  H    0.142236
    16  H    0.170737
 Sum of Mulliken charges=   0.00000

 Dipole moment (field-independent basis, Debye):
    X=     0.5102    Y=    -0.5933    Z=     1.0670  Tot=     1.3232
 Quadrupole moment (field-independent basis, Debye-Ang):
   XX=   -45.6908   YY=   -39.3503   ZZ=   -41.1450
   XY=    -0.7609   XZ=     0.6144   YZ=     1.5454

 Normal termination of Gaussian 03 at Wed Oct 28 23:00:06 2009.
