 Gaussian 03, Revision D.01,
 Gaussian 03:  AM64L-G03RevD.01 13-Oct-2005

 -------------------------
 # opt freq b3lyp/6-31g(d)
 -------------------------

 ----------------------
 butadiene optimization
 ----------------------
 Symbolic Z-matrix:
 Charge =  0 Multiplicity = 1

 SCF Done:  E(RB+HF-LYP) =  -155.981116681     A.U. after   12 cycles
 SCF Done:  E(RB+HF-LYP) =  -155.985486853     A.U. after   11 cycles
 SCF Done:  E(RB+HF-LYP) =  -155.985904448     A.U. after   13 cycles
 SCF Done:  E(RB+HF-LYP) =  -155.985954615     A.U. after   12 cycles
 SCF Done:  E(RB+HF-LYP) =  -155.985956084     A.U. after   12 cycles
 Optimization completed.
    -- Stationary point found.
 Normal termination of Gaussian 03 at Thu Nov  8 09:42:57 2007.

 ------------------------------------------------------------------
 #N Geom=AllCheck Guess=Read SCRF=Check GenChk RB3LYP/6-31G(d) Freq
 ------------------------------------------------------------------

 butadiene optimization
 ----------------------
 Redundant internal coordinates taken from checkpoint file:
 butadiene.chk
 Charge =  0 Multiplicity = 1

                         Standard orientation:
 ---------------------------------------------------------------------
 Center     Atomic     Atomic              Coordinates (Angstroms)
 Number     Number      Type              X           Y           Z
 ---------------------------------------------------------------------
    1          6             0       -0.540812   -1.534699    0.000000
    2          6             0       -0.894129   -0.242240    0.000000
    3          1             0        0.497668   -1.856730    0.000000
    4          1             0       -1.288824   -2.321782    0.000000
    5          1             0       -1.957593   -0.004729    0.000000
    6          6             0        0.000000    0.926307    0.000000
    7          6             0        1.339878    0.923320    0.000000
    8          1             0       -0.507291    1.890689    0.000000
    9          1             0        1.903920    1.851141    0.000000
   10          1             0        1.922499    0.005282    0.000000
 ---------------------------------------------------------------------

 SCF Done:  E(RB+HF-LYP) =  -155.985956084     A.U. after    1 cycles

 The electronic state is 1-A'.
 Alpha  occ. eigenvalues --  -10.19202 -10.19171 -10.18283 -10.18283  -0.79823
 Alpha  occ. eigenvalues --   -0.72475  -0.61825  -0.52662  -0.48753  -0.43657
 Alpha  occ. eigenvalues --   -0.41620  -0.35977  -0.34783  -0.31708  -0.22735
 Alpha virt. eigenvalues --   -0.03014   0.09644   0.10080   0.11474   0.15314
 Alpha virt. eigenvalues --    0.19205   0.20156   0.21005   0.30627   0.34057
 Alpha virt. eigenvalues --    0.43246   0.46725   0.52743   0.53209   0.58675

 Mulliken atomic charges:
              1
     1  C   -0.334496
     2  C   -0.077502
     3  H    0.140763
     4  H    0.144344
     5  H    0.126903
     6  C   -0.077521
     7  C   -0.334479
     8  H    0.126901
     9  H    0.144340
    10  H    0.140747
 Sum of Mulliken charges=   0.00000

 Dipole moment (field-independent basis, Debye):
    X=    -0.0676    Y=     0.0517    Z=     0.0000  Tot=     0.0851
 Quadrupole moment (field-independent basis, Debye-Ang):
   XX=   -22.5618   YY=   -22.6334   ZZ=   -27.9021
   XY=    -0.1315   XZ=     0.0000   YZ=     0.0000

  Exact polarizability:  51.946   8.014  56.288   0.000   0.000  15.435
 Approx polarizability:  78.961   9.806  84.273   0.000   0.000  21.396

 ******    1 imaginary frequencies (negative Signs) ******

                     1                      2                      3
                    A"                     A'                     A"
 Frequencies --  -124.8734               296.8337               517.9027
 Red. masses --     1.4362                 2.5680                 1.1876
 Frc consts  --     0.0132                 0.1333                 0.1877
 IR Inten    --     0.0000                 0.0148                11.2773

                     4                      5                      6
                    A'                     A"                     A'
 Frequencies --   569.3651               748.4719               888.9473
 Red. masses --     2.0829                 1.7469                 2.1224
 Frc consts  --     0.3978                 0.5766                 0.9882
 IR Inten    --     4.9490                 0.0001                 0.0489

                     7                      8                      9
                    A"                     A"                     A"
 Frequencies --   927.7403               930.0263              1038.2974
 Red. masses --     1.4187                 1.3665                 1.0911
 Frc consts  --     0.7194                 0.6964                 0.6931
 IR Inten    --     3.1826                66.6110                23.9783

                    10                     11                     12
                    A"                     A'                     A'
 Frequencies --  1040.4679              1074.1908              1122.1404
 Red. masses --     1.1203                 1.4495                 1.6097
 Frc consts  --     0.7146                 0.9854                 1.1943
 IR Inten    --     2.0017                 0.0100                 9.9366

                    13                     14                     15
                    A'                     A'                     A'
 Frequencies --  1331.4212              1374.7246              1462.1607
 Red. masses --     1.2800                 1.2641                 1.1544
 Frc consts  --     1.3369                 1.4075                 1.4542
 IR Inten    --     0.2965                 0.5129                 2.9065

                    16                     17                     18
                    A'                     A'                     A'
 Frequencies --  1489.4971              1691.2234              1724.7456
 Red. masses --     1.3011                 4.2656                 3.6331
 Frc consts  --     1.7007                 7.1885                 6.3677
 IR Inten    --     6.7176                 1.7588                 0.8300

                    19                     20                     21
                    A'                     A'                     A'
 Frequencies --  3148.5230              3162.6672              3166.0788
 Red. masses --     1.0841                 1.0713                 1.0638
 Frc consts  --     6.3319                 6.3137                 6.2826
 IR Inten    --    12.5554                40.0052                 4.1042

                    22                     23                     24
                    A'                     A'                     A'
 Frequencies --  3173.1982              3245.0022              3248.3615
 Red. masses --     1.0779                 1.1156                 1.1160
 Frc consts  --     6.3949                 6.9211                 6.9383
 IR Inten    --     0.4742                19.3275                11.6907

 - Thermochemistry -
 -------------------
 Temperature   298.150 Kelvin.  Pressure   1.00000 Atm.
 Atom  1 has atomic number  6 and mass  12.00000

 Molecular mass:    54.04695 amu.
 Principal axes and moments of inertia in atomic units:
                           1         2         3
     EIGENVALUES --    83.93398 321.44862 405.38260
           X            0.60767   0.79419   0.00000
           Y            0.79419  -0.60767   0.00000
           Z            0.00000   0.00000   1.00000
 This molecule is an asymmetric top.
 Rotational symmetry number  1.
 Rotational temperatures (Kelvin)      1.03193     0.26945     0.21366
 Rotational constants (GHZ):          21.50191     5.61440     4.45195
    1 imaginary frequencies ignored.
 Zero-point vibrational energy     223534.1 (Joules/Mol)
                                   53.42594 (Kcal/Mol)
 Warning -- explicit consideration of   3 degrees of freedom as
           vibrations may cause significant error
 Vibrational temperatures:    427.08   745.15   819.19  1076.88  1279.00
          (Kelvin)           1334.81  1338.10  1493.88  1497.00  1545.52
                             1614.51  1915.62  1977.92  2103.72  2143.05
                             2433.29  2481.52  4530.02  4550.37  4555.28
                             4565.52  4668.83  4673.66

 Zero-point correction=                           0.085140 (Hartree/Particle)
 Thermal correction to Energy=                    0.089180
 Thermal correction to Enthalpy=                  0.090124
 Thermal correction to Gibbs Free Energy=         0.059069
 Sum of electronic and zero-point Energies=           -155.900816
 Sum of electronic and thermal Energies=              -155.896776
 Sum of electronic and thermal Enthalpies=            -155.895832
 Sum of electronic and thermal Free Energies=         -155.926887

                     E (Thermal)             CV                S
                      KCal/Mol        Cal/Mol-Kelvin    Cal/Mol-Kelvin
 Total                   55.961             13.848             65.360
 Electronic               0.000              0.000              0.000
 Translational            0.889              2.981             37.884
 Rotational               0.889              2.981             23.907
 Vibrational             54.184              7.886              3.569
 Vibration  1             0.690              1.680              1.435
 Vibration  2             0.873              1.210              0.615
 Vibration  3             0.925              1.098              0.505

 Optimization completed.
    -- Stationary point found.
 Normal termination of Gaussian 03 at Thu Nov  8 09:44:19 2007.
