 Gaussian 03, Revision D.01,
 Gaussian 03:  AM64L-G03RevD.01 13-Oct-2005

 -------------------------
 # opt freq b3lyp/6-31g(d)
 -------------------------

 ----------------------
 butadiene optimization
 ----------------------
 Symbolic Z-matrix:
 Charge =  0 Multiplicity = 1

 SCF Done:  E(RB+HF-LYP) =  -155.986024950     A.U. after   12 cycles
 SCF Done:  E(RB+HF-LYP) =  -155.986103507     A.U. after   10 cycles
 SCF Done:  E(RB+HF-LYP) =  -155.986177341     A.U. after    9 cycles
 SCF Done:  E(RB+HF-LYP) =  -155.986283152     A.U. after   12 cycles
 SCF Done:  E(RB+HF-LYP) =  -155.986382018     A.U. after    9 cycles
 SCF Done:  E(RB+HF-LYP) =  -155.986467975     A.U. after   10 cycles
 SCF Done:  E(RB+HF-LYP) =  -155.986485495     A.U. after   10 cycles
 SCF Done:  E(RB+HF-LYP) =  -155.986488176     A.U. after   13 cycles
 SCF Done:  E(RB+HF-LYP) =  -155.986489633     A.U. after    8 cycles
 SCF Done:  E(RB+HF-LYP) =  -155.986489698     A.U. after   11 cycles
 Optimization completed.
    -- Stationary point found.
 Normal termination of Gaussian 03 at Thu Nov  8 10:51:15 2007.

 ------------------------------------------------------------------
 #N Geom=AllCheck Guess=Read SCRF=Check GenChk RB3LYP/6-31G(d) Freq
 ------------------------------------------------------------------

 butadiene optimization
 ----------------------
 Redundant internal coordinates taken from checkpoint file:
 butadiene.chk
 Charge =  0 Multiplicity = 1

                         Standard orientation:
 ---------------------------------------------------------------------
 Center     Atomic     Atomic              Coordinates (Angstroms)
 Number     Number      Type              X           Y           Z
 ---------------------------------------------------------------------
    1          6             0       -1.543736   -0.493511    0.074903
    2          6             0       -0.728293    0.554328   -0.099621
    3          1             0       -1.174753   -1.455723    0.421356
    4          1             0       -2.611037   -0.418527   -0.112235
    5          1             0       -1.163786    1.509351   -0.395605
    6          6             0        0.728293    0.554328    0.099621
    7          6             0        1.543736   -0.493512   -0.074903
    8          1             0        1.163787    1.509351    0.395605
    9          1             0        2.611037   -0.418528    0.112234
   10          1             0        1.174751   -1.455722   -0.421356
 ---------------------------------------------------------------------

 SCF Done:  E(RB+HF-LYP) =  -155.986489698     A.U. after    2 cycles

 The electronic state is 1-A.
 Alpha  occ. eigenvalues --  -10.19209 -10.19177 -10.18238 -10.18238  -0.79919
 Alpha  occ. eigenvalues --   -0.72407  -0.61593  -0.52767  -0.48631  -0.43323
 Alpha  occ. eigenvalues --   -0.42102  -0.36649  -0.34621  -0.30647  -0.23115
 Alpha virt. eigenvalues --   -0.02280   0.07816   0.10960   0.12616   0.15052
 Alpha virt. eigenvalues --    0.17860   0.19165   0.21235   0.31484   0.33945
 Alpha virt. eigenvalues --    0.40630   0.47809   0.53655   0.53659   0.57677

 Mulliken atomic charges:
              1
     1  C   -0.330792
     2  C   -0.084803
     3  H    0.142981
     4  H    0.142489
     5  H    0.130125
     6  C   -0.084803
     7  C   -0.330792
     8  H    0.130125
     9  H    0.142489
    10  H    0.142981
 Sum of Mulliken charges=   0.00000

 Dipole moment (field-independent basis, Debye):
    X=     0.0000    Y=     0.1206    Z=     0.0000  Tot=     0.1206
 Quadrupole moment (field-independent basis, Debye-Ang):
   XX=   -22.9280   YY=   -22.7850   ZZ=   -27.4373
   XY=     0.0000   XZ=     0.6596   YZ=     0.0000

  Exact polarizability:  60.698   0.000  44.674   0.712   0.000  17.993
 Approx polarizability:  87.307   0.000  70.223  -0.975   0.000  24.983

                     1                      2                      3
                     A                      A                      A
 Frequencies --   154.7674               275.7634               478.1196
 Red. masses --     1.5194                 2.5204                 1.3392
 Frc consts  --     0.0214                 0.1129                 0.1804
 IR Inten    --     0.1274                 0.0014                10.4047

                     4                      5                      6
                     A                      A                      A
 Frequencies --   613.8746               757.1781               892.5343
 Red. masses --     1.7529                 1.6671                 2.0702
 Frc consts  --     0.3892                 0.5631                 0.9717
 IR Inten    --     5.1028                 2.7724                 0.4116

                     7                      8                      9
                     A                      A                      A
 Frequencies --   934.1191               934.7746              1025.5273
 Red. masses --     1.3983                 1.3591                 1.1108
 Frc consts  --     0.7189                 0.6997                 0.6883
 IR Inten    --     3.8262                70.2150                 1.1432

                    10                     11                     12
                     A                      A                      A
 Frequencies --  1036.9756              1076.3969              1114.9700
 Red. masses --     1.0860                 1.4676                 1.5900
 Frc consts  --     0.6880                 1.0019                 1.1646
 IR Inten    --    24.9899                 0.0202                 6.0347

                    13                     14                     15
                     A                      A                      A
 Frequencies --  1324.0204              1358.5785              1458.2095
 Red. masses --     1.2770                 1.2934                 1.1604
 Frc consts  --     1.3190                 1.4065                 1.4537
 IR Inten    --     0.3588                 0.1234                 1.2683

                    16                     17                     18
                     A                      A                      A
 Frequencies --  1486.0543              1695.9456              1720.3319
 Red. masses --     1.2730                 4.7515                 3.7038
 Frc consts  --     1.6563                 8.0520                 6.4583
 IR Inten    --     6.4866                 1.6669                 2.0611

                    19                     20                     21
                     A                      A                      A
 Frequencies --  3141.7783              3154.6139              3165.3809
 Red. masses --     1.0843                 1.0790                 1.0626
 Frc consts  --     6.3059                 6.3264                 6.2731
 IR Inten    --    12.5917                35.9014                 6.6099

                    22                     23                     24
                     A                      A                      A
 Frequencies --  3169.5053              3245.6157              3247.8881
 Red. masses --     1.0699                 1.1162                 1.1165
 Frc consts  --     6.3323                 6.9277                 6.9394
 IR Inten    --     0.1290                23.1283                 8.7775

 - Thermochemistry -
 -------------------
 Temperature   298.150 Kelvin.  Pressure   1.00000 Atm.
 Atom  1 has atomic number  6 and mass  12.00000

 Molecular mass:    54.04695 amu.
 Principal axes and moments of inertia in atomic units:
                           1         2         3
     EIGENVALUES --    83.90319 322.28762 398.55903
           X            0.99998   0.00000   0.00582
           Y            0.00000   1.00000   0.00000
           Z           -0.00582   0.00000   0.99998
 This molecule is an asymmetric top.
 Rotational symmetry number  1.
 Rotational temperatures (Kelvin)      1.03231     0.26875     0.21732
 Rotational constants (GHZ):          21.50980     5.59978     4.52817
 Zero-point vibrational energy     224078.0 (Joules/Mol)
                                   53.55594 (Kcal/Mol)
 Warning -- explicit consideration of   4 degrees of freedom as
           vibrations may cause significant error
 Vibrational temperatures:    222.68   396.76   687.91   883.23  1089.41
          (Kelvin)           1284.16  1343.99  1344.93  1475.50  1491.97
                             1548.69  1604.19  1904.97  1954.69  2098.04
                             2138.10  2440.08  2475.17  4520.31  4538.78
                             4554.27  4560.21  4669.71  4672.98

 Zero-point correction=                           0.085347 (Hartree/Particle)
 Thermal correction to Energy=                    0.090051
 Thermal correction to Enthalpy=                  0.090996
 Thermal correction to Gibbs Free Energy=         0.058640
 Sum of electronic and zero-point Energies=           -155.901143
 Sum of electronic and thermal Energies=              -155.896438
 Sum of electronic and thermal Enthalpies=            -155.895494
 Sum of electronic and thermal Free Energies=         -155.927849

                     E (Thermal)             CV                S
                      KCal/Mol        Cal/Mol-Kelvin    Cal/Mol-Kelvin
 Total                   56.508             15.774             68.097
 Electronic               0.000              0.000              0.000
 Translational            0.889              2.981             37.884
 Rotational               0.889              2.981             23.892
 Vibrational             54.731              9.812              6.321
 Vibration  1             0.620              1.897              2.613
 Vibration  2             0.677              1.718              1.560
 Vibration  3             0.835              1.299              0.715
 Vibration  4             0.973              1.003              0.426

 Optimization completed.
    -- Stationary point found.
 Normal termination of Gaussian 03 at Thu Nov  8 10:53:30 2007.
