 Gaussian 03, Revision D.01,
 Gaussian 03:  AM64L-G03RevD.01 13-Oct-2005

 --------------------------
 #N opt freq b3lyp/6-31g(d)
 --------------------------

 ---------------------------
 fluoroethylene optimization
 ---------------------------
 Symbolic Z-matrix:
 Charge =  0 Multiplicity = 1

 SCF Done:  E(RB+HF-LYP) =  -177.816007868     A.U. after   13 cycles
 SCF Done:  E(RB+HF-LYP) =  -177.819552268     A.U. after   11 cycles
 SCF Done:  E(RB+HF-LYP) =  -177.819634226     A.U. after    9 cycles
 SCF Done:  E(RB+HF-LYP) =  -177.819638533     A.U. after    8 cycles
 Optimization completed.
    -- Stationary point found.
 Normal termination of Gaussian 03 at Thu Nov  8 09:41:26 2007.

 ------------------------------------------------------------------
 #N Geom=AllCheck Guess=Read SCRF=Check GenChk RB3LYP/6-31G(d) Freq
 ------------------------------------------------------------------

 fluoroethylene optimization
 ---------------------------
 Redundant internal coordinates taken from checkpoint file:
 c2h3f.chk
 Charge =  0 Multiplicity = 1

                         Standard orientation:
 ---------------------------------------------------------------------
 Center     Atomic     Atomic              Coordinates (Angstroms)
 Number     Number      Type              X           Y           Z
 ---------------------------------------------------------------------
    1          6             0        1.190571   -0.149138    0.000000
    2          1             0        1.295868   -1.228719    0.000000
    3          1             0        2.085282    0.462309    0.000000
    4          6             0        0.000000    0.431792    0.000000
    5          1             0       -0.180993    1.503233    0.000000
    6          9             0       -1.149287   -0.270305    0.000000
 ---------------------------------------------------------------------

 SCF Done:  E(RB+HF-LYP) =  -177.819638533     A.U. after    1 cycles

 The electronic state is 1-A'.
 Alpha  occ. eigenvalues --  -24.70116 -10.26951 -10.18627  -1.21240  -0.76639
 Alpha  occ. eigenvalues --   -0.60332  -0.52191  -0.47805  -0.44824  -0.40732
 Alpha  occ. eigenvalues --   -0.36631  -0.26033
 Alpha virt. eigenvalues --    0.02205   0.11488   0.13216   0.14845   0.23644
 Alpha virt. eigenvalues --    0.33843   0.49670   0.52958   0.57882   0.61715
 Alpha virt. eigenvalues --    0.62037   0.66779   0.84603   0.85030   0.92443

 Mulliken atomic charges:
              1
     1  C   -0.378549
     2  H    0.160905
     3  H    0.155302
     4  C    0.191938
     5  H    0.139957
     6  F   -0.269553
 Sum of Mulliken charges=   0.00000

 Dipole moment (field-independent basis, Debye):
    X=     0.9824    Y=     0.7620    Z=     0.0000  Tot=     1.2433
 Quadrupole moment (field-independent basis, Debye-Ang):
   XX=   -17.0795   YY=   -15.2369   ZZ=   -18.4505
   XY=    -0.6014   XZ=     0.0000   YZ=     0.0000

  Exact polarizability:  29.621  -3.461  21.986   0.000   0.000   9.853
 Approx polarizability:  46.886  -6.543  28.914   0.000   0.000  13.019

                     1                      2                      3
                    A'                     A"                     A"
 Frequencies --   484.7022               733.3660               871.5397
 Red. masses --     2.4031                 1.4913                 1.3804
 Frc consts  --     0.3326                 0.4726                 0.6178
 IR Inten    --     3.8227                 0.6024                49.6794

                     4                      5                      6
                    A'                     A"                     A'
 Frequencies --   952.1764               977.6253              1191.8603
 Red. masses --     2.0518                 1.1078                 3.1279
 Frc consts  --     1.0960                 0.6238                 2.6179
 IR Inten    --    31.7703                25.4512                90.4267

                     7                      8                      9
                    A'                     A'                     A'
 Frequencies --  1350.3304              1441.2744              1742.2493
 Red. masses --     1.1572                 1.1973                 4.7200
 Frc consts  --     1.2432                 1.4654                 8.4413
 IR Inten    --     1.5714                 5.1244                94.4695

                    10                     11                     12
                    A'                     A'                     A'
 Frequencies --  3192.4977              3216.5289              3285.4628
 Red. masses --     1.0577                 1.0991                 1.1180
 Frc consts  --     6.3513                 6.6997                 7.1102
 IR Inten    --     2.4579                12.1822                 4.7982

 - Thermochemistry -
 -------------------
 Temperature   298.150 Kelvin.  Pressure   1.00000 Atm.
 Atom  1 has atomic number  6 and mass  12.00000

 Molecular mass:    46.02188 amu.
 Principal axes and moments of inertia in atomic units:
                           1         2         3
     EIGENVALUES --    27.47456 171.40000 198.87456
           X            0.99762  -0.06889   0.00000
           Y            0.06889   0.99762   0.00000
           Z            0.00000   0.00000   1.00000
 This molecule is an asymmetric top.
 Rotational symmetry number  1.
 Rotational temperatures (Kelvin)      3.15251     0.50533     0.43552
 Rotational constants (GHZ):          65.68771    10.52941     9.07477
 Zero-point vibrational energy     116274.7 (Joules/Mol)
                                   27.79032 (Kcal/Mol)
 Warning -- explicit consideration of   1 degrees of freedom as
           vibrations may cause significant error
 Vibrational temperatures:    697.38  1055.15  1253.95  1369.97  1406.58
          (Kelvin)           1714.82  1942.82  2073.67  2506.71  4593.29
                             4627.86  4727.04

 Zero-point correction=                           0.044287 (Hartree/Particle)
 Thermal correction to Energy=                    0.047634
 Thermal correction to Enthalpy=                  0.048578
 Thermal correction to Gibbs Free Energy=         0.019931
 Sum of electronic and zero-point Energies=           -177.775352
 Sum of electronic and thermal Energies=              -177.772005
 Sum of electronic and thermal Enthalpies=            -177.771060
 Sum of electronic and thermal Free Energies=         -177.799707

                     E (Thermal)             CV                S
                      KCal/Mol        Cal/Mol-Kelvin    Cal/Mol-Kelvin
 Total                   29.891              9.846             60.292
 Electronic               0.000              0.000              0.000
 Translational            0.889              2.981             37.405
 Rotational               0.889              2.981             21.465
 Vibrational             28.113              3.885              1.423
 Vibration  1             0.841              1.284              0.697

 Optimization completed.
    -- Stationary point found.
 Normal termination of Gaussian 03 at Thu Nov  8 09:41:52 2007.
