 Gaussian 03, Revision D.01,
 Gaussian 03:  AM64L-G03RevD.01 13-Oct-2005

 -------------------------------------------------
 #N B3LYP/6-31G(d) freq guess=read geom=checkpoint
 -------------------------------------------------

 C6H9F
 -----
 Redundant internal coordinates taken from checkpoint file:
 b3lyp-ts.chk
 Charge =  0 Multiplicity = 1

                         Standard orientation:
 ---------------------------------------------------------------------
 Center     Atomic     Atomic              Coordinates (Angstroms)
 Number     Number      Type              X           Y           Z
 ---------------------------------------------------------------------
    1          6             0        0.272549    1.514271   -0.251468
    2          6             0        1.479210    1.048731    0.231956
    3          6             0        1.904108   -0.278390    0.037949
    4          6             0        1.116127   -1.202996   -0.632385
    5          6             0       -0.716558   -1.235708    0.561642
    6          6             0       -1.314291    0.007168    0.534071
    7          1             0       -1.437165    0.657122    1.390118
    8          9             0       -2.231152    0.254578   -0.445019
    9          1             0       -0.246864   -1.552035    1.484475
   10          1             0       -1.136367   -2.019868   -0.059801
   11          1             0        0.502248   -0.895467   -1.472912
   12          1             0        1.422703   -2.246100   -0.664890
   13          1             0        2.749089   -0.637258    0.623320
   14          1             0        2.026809    1.658930    0.949062
   15          1             0       -0.082382    2.503887    0.026925
   16          1             0       -0.164566    1.121134   -1.161712
 ---------------------------------------------------------------------

 SCF Done:  E(RB+HF-LYP) =  -333.773463107     A.U. after    1 cycles

 The electronic state is 1-A.
 Alpha  occ. eigenvalues --  -24.68793 -10.26338 -10.19273 -10.19004 -10.18359
 Alpha  occ. eigenvalues --  -10.18072 -10.17925  -1.19617  -0.80539  -0.75147
 Alpha  occ. eigenvalues --   -0.71434  -0.62235  -0.59717  -0.52317  -0.50896
 Alpha  occ. eigenvalues --   -0.48982  -0.46248  -0.44621  -0.42650  -0.40193
 Alpha  occ. eigenvalues --   -0.39466  -0.36021  -0.35451  -0.35180  -0.33177
 Alpha  occ. eigenvalues --   -0.23531  -0.21072
 Alpha virt. eigenvalues --   -0.01448   0.01254   0.09758   0.10734   0.11657
 Alpha virt. eigenvalues --    0.13575   0.14566   0.15015   0.17328   0.19793
 Alpha virt. eigenvalues --    0.20273   0.23449   0.24159   0.28877   0.32452

 Mulliken atomic charges:
              1
     1  C   -0.380999
     2  C   -0.075476
     3  C   -0.086446
     4  C   -0.334451
     5  C   -0.369758
     6  C    0.183313
     7  H    0.154706
     8  F   -0.291798
     9  H    0.161940
    10  H    0.171312
    11  H    0.166111
    12  H    0.143710
    13  H    0.122088
    14  H    0.122775
    15  H    0.142236
    16  H    0.170737
 Sum of Mulliken charges=   0.00000

 Dipole moment (field-independent basis, Debye):
    X=     0.5102    Y=    -0.5933    Z=     1.0670  Tot=     1.3232
 Quadrupole moment (field-independent basis, Debye-Ang):
   XX=   -45.6908   YY=   -39.3503   ZZ=   -41.1450
   XY=    -0.7609   XZ=     0.6144   YZ=     1.5454

  Exact polarizability:  81.661  -0.555  79.728   1.479   3.414  48.543
 Approx polarizability: 144.969  -2.274 135.407   1.825   5.615  71.926

 ******    1 imaginary frequencies (negative Signs) ******

                     1                      2                      3
                     A                      A                      A
 Frequencies --  -574.5603                87.1698               181.0860
 Red. masses --     6.7544                 3.6982                 4.9876
 Frc consts  --     1.3137                 0.0166                 0.0964
 IR Inten    --     1.3202                 1.0754                 1.3256

                     4                      5                      6
                     A                      A                      A
 Frequencies --   231.8124               283.8763               373.1881
 Red. masses --     4.6655                 3.2636                 2.5344
 Frc consts  --     0.1477                 0.1550                 0.2080
 IR Inten    --     2.0606                 0.3132                 0.0251

                     7                      8                      9
                     A                      A                      A
 Frequencies --   438.1335               463.0590               523.7141
 Red. masses --     2.9483                 2.3265                 2.6202
 Frc consts  --     0.3334                 0.2939                 0.4234
 IR Inten    --     5.2095                 0.2777                 3.0141

                    10                     11                     12
                     A                      A                      A
 Frequencies --   596.4390               702.6693               738.3291
 Red. masses --     2.0217                 1.2042                 1.2255
 Frc consts  --     0.4237                 0.3503                 0.3936
 IR Inten    --     0.0437                23.5486                18.8438

                    13                     14                     15
                     A                      A                      A
 Frequencies --   798.7691               830.6209               896.0880
 Red. masses --     1.3479                 1.2999                 1.3313
 Frc consts  --     0.5067                 0.5284                 0.6298
 IR Inten    --     1.4644                10.2126                 3.6491

                    16                     17                     18
                     A                      A                      A
 Frequencies --   947.6702               961.9673               967.5471
 Red. masses --     1.4241                 1.5840                 1.3031
 Frc consts  --     0.7536                 0.8636                 0.7187
 IR Inten    --    24.1901                33.4101                 2.0005

                    19                     20                     21
                     A                      A                      A
 Frequencies --   987.0859              1014.3844              1030.7574
 Red. masses --     1.3035                 1.1698                 1.1695
 Frc consts  --     0.7483                 0.7092                 0.7321
 IR Inten    --     9.2121                16.1460                 6.1657

                    22                     23                     24
                     A                      A                      A
 Frequencies --  1105.7683              1115.7597              1173.3962
 Red. masses --     1.7051                 1.5174                 2.1409
 Frc consts  --     1.2284                 1.1130                 1.7368
 IR Inten    --     1.1497                 1.8678                67.5272

                    25                     26                     27
                     A                      A                      A
 Frequencies --  1263.1850              1275.7990              1315.1082
 Red. masses --     1.4785                 1.4829                 1.3959
 Frc consts  --     1.3899                 1.4221                 1.4224
 IR Inten    --    14.0932                 0.4609                 3.1463

                    28                     29                     30
                     A                      A                      A
 Frequencies --  1422.2553              1454.8520              1510.1162
 Red. masses --     1.3195                 1.2162                 1.7597
 Frc consts  --     1.5726                 1.5167                 2.3643
 IR Inten    --    19.6588                 0.9125                19.9200

                    31                     32                     33
                     A                      A                      A
 Frequencies --  1545.6720              1608.2588              1617.4097
 Red. masses --     1.5332                 2.6372                 2.5766
 Frc consts  --     2.1582                 4.0189                 3.9714
 IR Inten    --    17.1531                16.8552                 5.1215

                    34                     35                     36
                     A                      A                      A
 Frequencies --  3153.7549              3158.8115              3168.6960
 Red. masses --     1.0791                 1.0612                 1.0685
 Frc consts  --     6.3235                 6.2385                 6.3212
 IR Inten    --     2.0139                18.8097                20.0360

                    37                     38                     39
                     A                      A                      A
 Frequencies --  3177.9712              3185.1577              3234.6118
 Red. masses --     1.0881                 1.0569                 1.1150
 Frc consts  --     6.4745                 6.3174                 6.8734
 IR Inten    --    17.0265                 1.3267                12.8523

                    40                     41                     42
                     A                      A                      A
 Frequencies --  3248.7025              3252.2633              3278.6882
 Red. masses --     1.0956                 1.1118                 1.1152
 Frc consts  --     6.8130                 6.9288                 7.0634
 IR Inten    --     2.1711                12.8420                 4.2103

 - Thermochemistry -
 -------------------
 Temperature   298.150 Kelvin.  Pressure   1.00000 Atm.
 Atom  1 has atomic number  6 and mass  12.00000

 Molecular mass:   100.06883 amu.
 Principal axes and moments of inertia in atomic units:
                           1         2         3
     EIGENVALUES --   459.95245 895.831051165.84879
           X            0.99998  -0.00159  -0.00536
           Y            0.00170   0.99979   0.02066
           Z            0.00533  -0.02067   0.99977
 This molecule is an asymmetric top.
 Rotational symmetry number  1.
 Warning -- assumption of classical behavior for rotation
           may cause significant error
 Rotational temperatures (Kelvin)      0.18831     0.09669     0.07429
 Rotational constants (GHZ):           3.92376     2.01460     1.54801
    1 imaginary frequencies ignored.
 Zero-point vibrational energy     348834.7 (Joules/Mol)
                                   83.37349 (Kcal/Mol)
 Warning -- explicit consideration of   9 degrees of freedom as
           vibrations may cause significant error
 Vibrational temperatures:    125.42   260.54   333.53   408.43   536.93
          (Kelvin)            630.38   666.24   753.51   858.14  1010.98
                             1062.29  1149.25  1195.08  1289.27  1363.48
                             1384.05  1392.08  1420.19  1459.47  1483.03
                             1590.95  1605.33  1688.25  1817.44  1835.59
                             1892.15  2046.31  2093.21  2172.72  2223.87
                             2313.92  2327.09  4537.54  4544.82  4559.04
                             4572.39  4582.73  4653.88  4674.15  4679.28
                             4717.30

 Zero-point correction=                           0.132864 (Hartree/Particle)
 Thermal correction to Energy=                    0.140012
 Thermal correction to Enthalpy=                  0.140956
 Thermal correction to Gibbs Free Energy=         0.101741
 Sum of electronic and zero-point Energies=           -333.640599
 Sum of electronic and thermal Energies=              -333.633451
 Sum of electronic and thermal Enthalpies=            -333.632507
 Sum of electronic and thermal Free Energies=         -333.671722

                     E (Thermal)             CV                S
                      KCal/Mol        Cal/Mol-Kelvin    Cal/Mol-Kelvin
 Total                   87.859             27.133             82.534
 Electronic               0.000              0.000              0.000
 Translational            0.889              2.981             39.720
 Rotational               0.889              2.981             27.665
 Vibrational             86.081             21.171             15.149
 Vibration  1             0.601              1.958              3.723
 Vibration  2             0.630              1.865              2.317
 Vibration  3             0.653              1.792              1.865
 Vibration  4             0.682              1.704              1.510
 Vibration  5             0.745              1.527              1.067
 Vibration  6             0.798              1.387              0.832
 Vibration  7             0.821              1.332              0.757
 Vibration  8             0.879              1.197              0.601
 Vibration  9             0.954              1.039              0.456

 Optimization completed.
    -- Stationary point found.
 Normal termination of Gaussian 03 at Thu Nov  8 11:18:26 2007.
