 Gaussian 03, Revision D.01,
 Gaussian 03:  AM64L-G03RevD.01 13-Oct-2005

 -------------------
 #N B3LYP/3-21G freq
 -------------------

 -----
 C6H9F
 -----
 Symbolic Z-matrix:
 Charge =  0 Multiplicity = 1

                         Standard orientation:
 ---------------------------------------------------------------------
 Center     Atomic     Atomic              Coordinates (Angstroms)
 Number     Number      Type              X           Y           Z
 ---------------------------------------------------------------------
    1          6             0       -0.136428    1.431853    0.367322
    2          6             0       -1.305086    1.122216   -0.281903
    3          6             0       -1.862755   -0.159464   -0.128787
    4          6             0       -1.214112   -1.091845    0.648321
    5          6             0        0.575826   -1.283593   -0.469465
    6          6             0        1.215620   -0.053005   -0.509924
    7          1             0        1.280220    0.564480   -1.412952
    8          9             0        2.250891    0.171525    0.319756
    9          1             0        0.051173   -1.628742   -1.358532
   10          1             0        0.940761   -2.082041    0.176884
   11          1             0       -0.624222   -0.768630    1.514827
   12          1             0       -1.568982   -2.118385    0.703813
   13          1             0       -2.721502   -0.443139   -0.746107
   14          1             0       -1.734437    1.802805   -1.024673
   15          1             0        0.387687    2.365572    0.181662
   16          1             0        0.092891    0.967381    1.333891
 ---------------------------------------------------------------------

 SCF Done:  E(RB+HF-LYP) =  -331.962468001     A.U. after   15 cycles

 The electronic state is 1-A.
 Alpha  occ. eigenvalues --  -24.54494 -10.20072 -10.13089 -10.12562 -10.12090
 Alpha  occ. eigenvalues --  -10.11471 -10.11255  -1.19673  -0.81882  -0.75064
 Alpha  occ. eigenvalues --   -0.71948  -0.62424  -0.58979  -0.52021  -0.50885
 Alpha  occ. eigenvalues --   -0.49547  -0.46404  -0.44690  -0.42638  -0.40380
 Alpha  occ. eigenvalues --   -0.39257  -0.36031  -0.35379  -0.34050  -0.33338
 Alpha  occ. eigenvalues --   -0.23503  -0.20781
 Alpha virt. eigenvalues --   -0.00376   0.02002   0.11111   0.12123   0.13054
 Alpha virt. eigenvalues --    0.14871   0.16805   0.17590   0.19549   0.21701
 Alpha virt. eigenvalues --    0.22762   0.26313   0.28016   0.31444   0.35854

 Mulliken atomic charges:
              1
     1  C   -0.424422
     2  C   -0.180992
     3  C   -0.182028
     4  C   -0.387177
     5  C   -0.443555
     6  C    0.138220
     7  H    0.200840
     8  F   -0.297231
     9  H    0.210001
    10  H    0.216387
    11  H    0.209370
    12  H    0.189267
    13  H    0.176120
    14  H    0.177400
    15  H    0.189575
    16  H    0.208225
 Sum of Mulliken charges=   0.00000

 Dipole moment (field-independent basis, Debye):
    X=    -0.6079    Y=    -0.6546    Z=    -0.8610  Tot=     1.2407
 Quadrupole moment (field-independent basis, Debye-Ang):
   XX=   -46.8877   YY=   -39.6652   ZZ=   -41.1922
   XY=     1.3963   XZ=     0.9782   YZ=    -1.7828

  Exact polarizability:  72.495   1.782  72.887   2.730  -3.704  45.807
 Approx polarizability: 128.624   4.564 122.238   6.075  -6.499  66.219

 ******    1 imaginary frequencies (negative Signs) ******

                     1                      2                      3
                     A                      A                      A
 Frequencies --  -639.8229                32.2550               169.6555
 Red. masses --     8.2126                 3.9991                 5.2249
 Frc consts  --     1.9808                 0.0025                 0.0886
 IR Inten    --     2.4520                 1.7029                 0.1666

                     4                      5                      6
                     A                      A                      A
 Frequencies --   244.2953               315.0170               455.9698
 Red. masses --     5.0061                 3.7370                 2.7778
 Frc consts  --     0.1760                 0.2185                 0.3403
 IR Inten    --     4.6923                 0.4143                 4.2587

                     7                      8                      9
                     A                      A                      A
 Frequencies --   469.5033               485.6962               544.0522
 Red. masses --     2.6989                 2.6353                 2.8782
 Frc consts  --     0.3505                 0.3663                 0.5019
 IR Inten    --     0.1634                 2.6715                 7.2491

                    10                     11                     12
                     A                      A                      A
 Frequencies --   655.7791               763.5410               837.1669
 Red. masses --     2.1621                 1.1962                 1.3242
 Frc consts  --     0.5478                 0.4109                 0.5468
 IR Inten    --     1.2727                37.3577                14.8725

                    13                     14                     15
                     A                      A                      A
 Frequencies --   880.2905               901.3914               974.3287
 Red. masses --     1.3399                 1.2339                 1.2591
 Frc consts  --     0.6118                 0.5907                 0.7042
 IR Inten    --     8.7385                 4.9249                13.7049

                    16                     17                     18
                     A                      A                      A
 Frequencies --   987.3358              1006.6356              1027.7775
 Red. masses --     1.3658                 1.4443                 1.2974
 Frc consts  --     0.7844                 0.8623                 0.8075
 IR Inten    --     6.4110                 0.7447                 7.7137

                    19                     20                     21
                     A                      A                      A
 Frequencies --  1056.9354              1087.3733              1107.0562
 Red. masses --     1.1221                 1.4434                 1.1755
 Frc consts  --     0.7385                 1.0055                 0.8488
 IR Inten    --    10.1142                14.5582                19.6825

                    22                     23                     24
                     A                      A                      A
 Frequencies --  1145.7326              1155.8452              1220.6288
 Red. masses --     1.5477                 1.4311                 1.8309
 Frc consts  --     1.1971                 1.1265                 1.6073
 IR Inten    --     1.6963                 1.3679                10.9869

                    25                     26                     27
                     A                      A                      A
 Frequencies --  1312.8522              1328.6773              1355.2937
 Red. masses --     1.5247                 1.7493                 1.4642
 Frc consts  --     1.5483                 1.8195                 1.5846
 IR Inten    --     1.6436                40.7410                 9.8503

                    28                     29                     30
                     A                      A                      A
 Frequencies --  1495.8679              1502.5125              1523.8983
 Red. masses --     1.2567                 1.4474                 1.7172
 Frc consts  --     1.6568                 1.9252                 2.3495
 IR Inten    --     6.9068                24.0080                 8.9638

                    31                     32                     33
                     A                      A                      A
 Frequencies --  1577.0470              1631.9201              1639.7589
 Red. masses --     1.6583                 1.8339                 2.1743
 Frc consts  --     2.4300                 2.8776                 3.4446
 IR Inten    --    29.5749                16.9598                 3.8191

                    34                     35                     36
                     A                      A                      A
 Frequencies --  3068.7405              3078.0438              3079.7303
 Red. masses --     1.0696                 1.0874                 1.0801
 Frc consts  --     5.9347                 6.0700                 6.0359
 IR Inten    --    10.6288                10.9745                 7.5087

                    37                     38                     39
                     A                      A                      A
 Frequencies --  3083.3960              3101.3972              3132.6907
 Red. masses --     1.0743                 1.0925                 1.0609
 Frc consts  --     6.0176                 6.1915                 6.1342
 IR Inten    --     3.3613                20.4374                 2.2127

                    40                     41                     42
                     A                      A                      A
 Frequencies --  3191.8214              3201.6417              3205.1972
 Red. masses --     1.1029                 1.1036                 1.1135
 Frc consts  --     6.6202                 6.6654                 6.7396
 IR Inten    --    14.3544                 9.2108                 2.9982

 - Thermochemistry -
 -------------------
 Temperature   298.150 Kelvin.  Pressure   1.00000 Atm.
 Atom  1 has atomic number  6 and mass  12.00000

 Molecular mass:   100.06883 amu.
 Principal axes and moments of inertia in atomic units:
                           1         2         3
     EIGENVALUES --   438.76112 854.627211110.22455
           X            0.99994   0.01078  -0.00238
           Y           -0.01083   0.99974  -0.02009
           Z            0.00216   0.02011   0.99980
 This molecule is an asymmetric top.
 Rotational symmetry number  1.
 Warning -- assumption of classical behavior for rotation
           may cause significant error
 Rotational temperatures (Kelvin)      0.19741     0.10135     0.07801
 Rotational constants (GHZ):           4.11327     2.11173     1.62556
    1 imaginary frequencies ignored.
 Zero-point vibrational energy     353106.2 (Joules/Mol)
                                   84.39441 (Kcal/Mol)
 Warning -- explicit consideration of   8 degrees of freedom as
           vibrations may cause significant error
 Vibrational temperatures:     46.41   244.10   351.49   453.24   656.04
          (Kelvin)            675.51   698.81   782.77   943.52  1098.56
                             1204.49  1266.54  1296.90  1401.84  1420.55
                             1448.32  1478.74  1520.69  1564.49  1592.80
                             1648.45  1663.00  1756.21  1888.90  1911.67
                             1949.96  2152.22  2161.78  2192.55  2269.02
                             2347.97  2359.24  4415.23  4428.61  4431.04
                             4436.31  4462.21  4507.24  4592.31  4606.44
                             4611.56

 Zero-point correction=                           0.134491 (Hartree/Particle)
 Thermal correction to Energy=                    0.141376
 Thermal correction to Enthalpy=                  0.142320
 Thermal correction to Gibbs Free Energy=         0.102809
 Sum of electronic and zero-point Energies=           -331.827977
 Sum of electronic and thermal Energies=              -331.821092
 Sum of electronic and thermal Enthalpies=            -331.820148
 Sum of electronic and thermal Free Energies=         -331.859659

                     E (Thermal)             CV                S
                      KCal/Mol        Cal/Mol-Kelvin    Cal/Mol-Kelvin
 Total                   88.715             25.427             83.159
 Electronic               0.000              0.000              0.000
 Translational            0.889              2.981             39.720
 Rotational               0.889              2.981             27.523
 Vibrational             86.937             19.465             15.916
 Vibration  1             0.594              1.983              5.686
 Vibration  2             0.625              1.880              2.439
 Vibration  3             0.660              1.772              1.771
 Vibration  4             0.702              1.645              1.336
 Vibration  5             0.814              1.348              0.778
 Vibration  6             0.827              1.318              0.739
 Vibration  7             0.842              1.282              0.695
 Vibration  8             0.899              1.153              0.557

 Normal termination of Gaussian 03 at Wed Oct 28 23:47:36 2009.
