 Gaussian 03, Revision D.01,
 Gaussian 03:  AM64L-G03RevD.01 13-Oct-2005

 -------------------------------------------------
 #N B3LYP/6-31G(d) OPT=(TS,ReadFC) geom=checkpoint
 -------------------------------------------------

 C6H9F
 -----
 Z-Matrix taken from the checkpoint file:
 ts.chk
 Charge =  0 Multiplicity = 1

 SCF Done:  E(RB+HF-LYP) =  -333.768495631     A.U. after   14 cycles
 SCF Done:  E(RB+HF-LYP) =  -333.771403856     A.U. after   15 cycles
 SCF Done:  E(RB+HF-LYP) =  -333.772992941     A.U. after   13 cycles
 SCF Done:  E(RB+HF-LYP) =  -333.773442848     A.U. after   12 cycles
 SCF Done:  E(RB+HF-LYP) =  -333.773461946     A.U. after   11 cycles
 SCF Done:  E(RB+HF-LYP) =  -333.773463079     A.U. after    9 cycles
 SCF Done:  E(RB+HF-LYP) =  -333.773463139     A.U. after    8 cycles
 Optimization completed.
    -- Stationary point found.

                         Standard orientation:
 ---------------------------------------------------------------------
 Center     Atomic     Atomic              Coordinates (Angstroms)
 Number     Number      Type              X           Y           Z
 ---------------------------------------------------------------------
    1          6             0        0.272284    1.514199   -0.251499
    2          6             0        1.479027    1.048864    0.231936
    3          6             0        1.904188   -0.278178    0.037952
    4          6             0        1.116452   -1.202965   -0.632383
    5          6             0       -0.716488   -1.235694    0.561765
    6          6             0       -1.314238    0.007162    0.533976
    7          1             0       -1.437204    0.657150    1.389984
    8          9             0       -2.231243    0.254310   -0.445043
    9          1             0       -0.246619   -1.551798    1.484578
   10          1             0       -1.136223   -2.019982   -0.059561
   11          1             0        0.502457   -0.895619   -1.472886
   12          1             0        1.423207   -2.246021   -0.664798
   13          1             0        2.749230   -0.636849    0.623361
   14          1             0        2.026451    1.659129    0.949122
   15          1             0       -0.082847    2.503714    0.026996
   16          1             0       -0.164622    1.121160   -1.161890
 ---------------------------------------------------------------------

 The electronic state is 1-A.
 Alpha  occ. eigenvalues --  -24.68792 -10.26338 -10.19272 -10.19003 -10.18360
 Alpha  occ. eigenvalues --  -10.18072 -10.17925  -1.19617  -0.80539  -0.75147
 Alpha  occ. eigenvalues --   -0.71435  -0.62235  -0.59717  -0.52317  -0.50896
 Alpha  occ. eigenvalues --   -0.48982  -0.46248  -0.44621  -0.42650  -0.40193
 Alpha  occ. eigenvalues --   -0.39466  -0.36021  -0.35451  -0.35180  -0.33176
 Alpha  occ. eigenvalues --   -0.23528  -0.21075
 Alpha virt. eigenvalues --   -0.01447   0.01252   0.09757   0.10734   0.11656
 Alpha virt. eigenvalues --    0.13575   0.14567   0.15015   0.17329   0.19792
 Alpha virt. eigenvalues --    0.20273   0.23450   0.24158   0.28877   0.32452

 Mulliken atomic charges:
              1
     1  C   -0.381007
     2  C   -0.075479
     3  C   -0.086444
     4  C   -0.334448
     5  C   -0.369751
     6  C    0.183321
     7  H    0.154704
     8  F   -0.291806
     9  H    0.161939
    10  H    0.171305
    11  H    0.166105
    12  H    0.143708
    13  H    0.122090
    14  H    0.122774
    15  H    0.142244
    16  H    0.170745
 Sum of Mulliken charges=   0.00000

 Dipole moment (field-independent basis, Debye):
    X=     0.5105    Y=    -0.5928    Z=     1.0670  Tot=     1.3231
 Quadrupole moment (field-independent basis, Debye-Ang):
   XX=   -45.6910   YY=   -39.3506   ZZ=   -41.1450
   XY=    -0.7621   XZ=     0.6143   YZ=     1.5457

 Normal termination of Gaussian 03 at Thu Oct 29 00:06:59 2009.
