 Gaussian 09, Revision E.01,
 Gaussian 09:  EM64L-G09RevE.01 30-Nov-2015

 ---------------------------------------
 #N B3LYP/6-31G(d) OPT Geom=Connectivity
 ---------------------------------------

 ---
 O2N
 ---
 Symbolic Z-matrix:
 Charge =  0 Multiplicity = 2

 SCF Done:  E(UB3LYP) =  -205.057668778     A.U. after   13 cycles
 SCF Done:  E(UB3LYP) =  -205.071629057     A.U. after   14 cycles
 SCF Done:  E(UB3LYP) =  -205.072187111     A.U. after   13 cycles
 SCF Done:  E(UB3LYP) =  -205.072205670     A.U. after    9 cycles
 SCF Done:  E(UB3LYP) =  -205.072206197     A.U. after    8 cycles
 Optimization completed.
    -- Stationary point found.

                         Standard orientation:
 ---------------------------------------------------------------------
 Center     Atomic      Atomic             Coordinates (Angstroms)
 Number     Number       Type             X           Y           Z
 ---------------------------------------------------------------------
      1          7           0       -0.000000   -0.000000    0.328097
      2          8           0       -0.000000    1.106840   -0.143542
      3          8           0       -0.000000   -1.106840   -0.143542
 ---------------------------------------------------------------------

 The electronic state is 2-A1.
 Alpha  occ. eigenvalues --  -19.26565 -19.26564 -14.58716  -1.28182  -1.13638
 Alpha  occ. eigenvalues --   -0.67824  -0.57495  -0.57203  -0.56498  -0.38154
 Alpha  occ. eigenvalues --   -0.37745  -0.28768
 Alpha virt. eigenvalues --   -0.09029   0.21021   0.36963   0.58381   0.59072
 Alpha virt. eigenvalues --    0.59287   0.61180   0.77973   0.82021   0.87939
 Alpha virt. eigenvalues --    0.88919   0.93811   0.95239   1.27333   1.37164

  Beta  occ. eigenvalues --  -19.25674 -19.25673 -14.57652  -1.26312  -1.11487
  Beta  occ. eigenvalues --   -0.64487  -0.55405  -0.54825  -0.52977  -0.36985
  Beta  occ. eigenvalues --   -0.34105
  Beta virt. eigenvalues --   -0.14307  -0.07380   0.22347   0.39535   0.59688
  Beta virt. eigenvalues --    0.59884   0.61971   0.62077   0.78557   0.83811
  Beta virt. eigenvalues --    0.88371   0.91486   0.94472   0.96901   1.28905

 Mulliken charges and spin densities:
               1          2
     1  N    0.480661   0.436556
     2  O   -0.240331   0.281722
     3  O   -0.240331   0.281722
 Sum of Mulliken charges =  -0.00000   1.00000

 Dipole moment (field-independent basis, Debye):
    X=              0.0000    Y=             -0.0000    Z=              0.3213  Tot=              0.3213
 Quadrupole moment (field-independent basis, Debye-Ang):
   XX=            -14.5503   YY=            -17.5907   ZZ=            -15.2324
   XY=             -0.0000   XZ=             -0.0000   YZ=              0.0000

 Normal termination of Gaussian 09 at Fri Oct 13 15:47:21 2017.
