 Gaussian 09, Revision E.01,
 Gaussian 09:  EM64L-G09RevE.01 30-Nov-2015

 ---------------------------------------
 #N B3LYP/6-31G(d) OPT Geom=Connectivity
 ---------------------------------------

 ----
 O2Si
 ----
 Symbolic Z-matrix:
 Charge =  0 Multiplicity = 1

 SCF Done:  E(RB3LYP) =  -439.857181129     A.U. after   13 cycles
 SCF Done:  E(RB3LYP) =  -439.898933086     A.U. after   12 cycles
 SCF Done:  E(RB3LYP) =  -439.919504708     A.U. after   12 cycles
 SCF Done:  E(RB3LYP) =  -439.925002790     A.U. after   11 cycles
 SCF Done:  E(RB3LYP) =  -439.927896690     A.U. after   11 cycles
 SCF Done:  E(RB3LYP) =  -439.928103086     A.U. after   10 cycles
 SCF Done:  E(RB3LYP) =  -439.928119758     A.U. after    8 cycles
 Optimization completed.
    -- Stationary point found.

                         Standard orientation:
 ---------------------------------------------------------------------
 Center     Atomic      Atomic             Coordinates (Angstroms)
 Number     Number       Type             X           Y           Z
 ---------------------------------------------------------------------
      1         14           0       -0.000000   -0.000000    0.000049
      2          8           0        0.000000    1.519735   -0.000043
      3          8           0       -0.000000   -1.519735   -0.000043
 ---------------------------------------------------------------------

 The electronic state is 1-A1.
 Alpha  occ. eigenvalues --  -66.21705 -19.17898 -19.17897  -5.36909  -3.72944
 Alpha  occ. eigenvalues --   -3.72944  -3.72303  -0.99086  -0.96494  -0.46691
 Alpha  occ. eigenvalues --   -0.39300  -0.38143  -0.38143  -0.33863  -0.33863
 Alpha virt. eigenvalues --   -0.13017  -0.02834  -0.02834   0.13367   0.21800
 Alpha virt. eigenvalues --    0.21874   0.21874   0.53008   0.53021   0.63798
 Alpha virt. eigenvalues --    0.64023   0.64023   0.79276   0.92146   0.92146

 Mulliken charges:
               1
     1  Si   0.950394
     2  O   -0.475197
     3  O   -0.475197
 Sum of Mulliken charges =  -0.00000

 Dipole moment (field-independent basis, Debye):
    X=              0.0000    Y=             -0.0000    Z=              0.0005  Tot=              0.0005
 Quadrupole moment (field-independent basis, Debye-Ang):
   XX=            -19.7493   YY=            -31.4211   ZZ=            -19.7493
   XY=             -0.0000   XZ=             -0.0000   YZ=             -0.0000

 Normal termination of Gaussian 09 at Fri Oct 13 15:53:23 2017.
