 Gaussian 09, Revision E.01,
 Gaussian 09:  EM64L-G09RevE.01 30-Nov-2015

 ---------------------------------------
 #N B3LYP/6-31G(d) OPT Geom=Connectivity
 ---------------------------------------

 ---
 O2S
 ---
 Symbolic Z-matrix:
 Charge =  0 Multiplicity = 1

 SCF Done:  E(RB3LYP) =  -548.573506349     A.U. after   12 cycles
 SCF Done:  E(RB3LYP) =  -548.586977759     A.U. after   12 cycles
 SCF Done:  E(RB3LYP) =  -548.587443032     A.U. after   11 cycles
 SCF Done:  E(RB3LYP) =  -548.587463858     A.U. after    8 cycles
 Optimization completed.
    -- Stationary point found.

                         Standard orientation:
 ---------------------------------------------------------------------
 Center     Atomic      Atomic             Coordinates (Angstroms)
 Number     Number       Type             X           Y           Z
 ---------------------------------------------------------------------
      1         16           0       -0.000000    0.000000    0.370917
      2          8           0       -0.000000    1.261501   -0.370917
      3          8           0       -0.000000   -1.261501   -0.370917
 ---------------------------------------------------------------------

 The electronic state is 1-A1.
 Alpha  occ. eigenvalues --  -89.08312 -19.21141 -19.21140  -8.12305  -6.08684
 Alpha  occ. eigenvalues --   -6.08670  -6.08151  -1.13831  -1.04705  -0.64394
 Alpha  occ. eigenvalues --   -0.49078  -0.48964  -0.48741  -0.36622  -0.35414
 Alpha  occ. eigenvalues --   -0.33018
 Alpha virt. eigenvalues --   -0.13288   0.04755   0.06800   0.23847   0.28659
 Alpha virt. eigenvalues --    0.32733   0.39496   0.65022   0.65452   0.65461
 Alpha virt. eigenvalues --    0.76730   0.78949   0.92174   0.94272   0.99029

 Mulliken charges:
               1
     1  S    0.818561
     2  O   -0.409281
     3  O   -0.409281
 Sum of Mulliken charges =   0.00000

 Dipole moment (field-independent basis, Debye):
    X=              0.0000    Y=              0.0000    Z=              1.7779  Tot=              1.7779
 Quadrupole moment (field-independent basis, Debye-Ang):
   XX=            -20.5949   YY=            -26.7704   ZZ=            -22.3870
   XY=             -0.0000   XZ=             -0.0000   YZ=              0.0000

 Normal termination of Gaussian 09 at Fri Oct 13 15:50:33 2017.
