 Gaussian 03, Revision D.01,
 Gaussian 03:  AM64L-G03RevD.01 13-Oct-2005

 ---------------------------------
 #P HF/3-21G opt=(cartesian,gdiis)
 ---------------------------------

 -----------
 C2H4F2 Scan
 -----------
 Symbolic Z-matrix:
 Charge =  0 Multiplicity = 1

 SCF Done:  E(RHF) =  -275.413505763     A.U. after   11 cycles
 SCF Done:  E(RHF) =  -275.417982873     A.U. after   12 cycles
 SCF Done:  E(RHF) =  -275.418505735     A.U. after   10 cycles
 SCF Done:  E(RHF) =  -275.418563369     A.U. after    9 cycles
 SCF Done:  E(RHF) =  -275.418571001     A.U. after    8 cycles
 SCF Done:  E(RHF) =  -275.418571367     A.U. after    8 cycles
 Optimization completed.
    -- Stationary point found.

                         Standard orientation:
 ---------------------------------------------------------------------
 Center     Atomic     Atomic              Coordinates (Angstroms)
 Number     Number      Type              X           Y           Z
 ---------------------------------------------------------------------
    1          6             0       -0.651412   -0.378598    0.509479
    2          6             0        0.651412    0.378598    0.509479
    3          9             0        0.651412    1.310669   -0.541048
    4          1             0        0.769043    0.909959    1.441075
    5          1             0        1.472756   -0.305738    0.371488
    6          9             0       -0.651412   -1.310669   -0.541048
    7          1             0       -0.769043   -0.909959    1.441075
    8          1             0       -1.472756    0.305738    0.371488
 ---------------------------------------------------------------------

 The electronic state is 1-A.
 Alpha  occ. eigenvalues --  -26.13509 -26.13507 -11.26490 -11.26451  -1.57075
 Alpha  occ. eigenvalues --   -1.55911  -1.05475  -0.87713  -0.72079  -0.72013
 Alpha  occ. eigenvalues --   -0.67813  -0.64367  -0.63877  -0.59696  -0.53164
 Alpha  occ. eigenvalues --   -0.52382  -0.49854
 Alpha virt. eigenvalues --    0.26619   0.28603   0.30223   0.33037   0.36320
 Alpha virt. eigenvalues --    0.38502   0.42908   0.93229   0.93601   0.95723
 Alpha virt. eigenvalues --    1.00229   1.05451   1.08081   1.21216   1.30349

 Mulliken atomic charges:
              1
     1  C   -0.036440
     2  C   -0.036440
     3  F   -0.400502
     4  H    0.204681
     5  H    0.232262
     6  F   -0.400502
     7  H    0.204681
     8  H    0.232262
 Sum of Mulliken charges=   0.00000

 Dipole moment (field-independent basis, Debye):
    X=     0.0000    Y=     0.0000    Z=     3.2858  Tot=     3.2858
 Quadrupole moment (field-independent basis, Debye-Ang):
   XX=   -21.3846   YY=   -26.9164   ZZ=   -22.0783
   XY=    -2.2290   XZ=     0.0000   YZ=     0.0000

 Normal termination of Gaussian 03 at Wed Oct  3 23:23:47 2007.
