 Gaussian 03, Revision D.01,
 Gaussian 03:  AM64L-G03RevD.01 13-Oct-2005

 -----------------
 #P HF/3-21G FORCE
 -----------------

 ------------------------
 C2H4F2 Force calculation
 ------------------------
 Symbolic Z-matrix:
 Charge =  0 Multiplicity = 1

                         Standard orientation:
 ---------------------------------------------------------------------
 Center     Atomic     Atomic              Coordinates (Angstroms)
 Number     Number      Type              X           Y           Z
 ---------------------------------------------------------------------
    1          6             0        0.222855    0.736314    0.561776
    2          6             0       -0.222855   -0.736314    0.561776
    3          9             0        0.222855   -1.358613   -0.604008
    4          1             0        0.197551   -1.263598    1.449173
    5          1             0       -1.334261   -0.799976    0.616248
    6          9             0       -0.222855    1.358613   -0.604008
    7          1             0       -0.197551    1.263598    1.449173
    8          1             0        1.334261    0.799976    0.616248
 ---------------------------------------------------------------------

 SCF Done:  E(RHF) =  -275.412724062     A.U. after   11 cycles

 The electronic state is 1-A.
 Alpha  occ. eigenvalues --  -26.13973 -26.13966 -11.27627 -11.27587  -1.57721
 Alpha  occ. eigenvalues --   -1.56363  -1.03981  -0.86820  -0.71762  -0.71564
 Alpha  occ. eigenvalues --   -0.67682  -0.65163  -0.63792  -0.59835  -0.53455
 Alpha  occ. eigenvalues --   -0.50644  -0.49220
 Alpha virt. eigenvalues --    0.25452   0.28640   0.30047   0.30616   0.35374
 Alpha virt. eigenvalues --    0.38961   0.42933   0.92620   0.93884   0.98392
 Alpha virt. eigenvalues --    0.98563   1.03018   1.11080   1.18947   1.27184

 Mulliken atomic charges:
              1
     1  C   -0.017187
     2  C   -0.017187
     3  F   -0.393206
     4  H    0.195896
     5  H    0.214496
     6  F   -0.393206
     7  H    0.195896
     8  H    0.214496
 Sum of Mulliken charges=   0.00000

 Dipole moment (field-independent basis, Debye):
    X=     0.0000    Y=     0.0000    Z=     3.5652  Tot=     3.5652
 Quadrupole moment (field-independent basis, Debye-Ang):
   XX=   -21.5200   YY=   -26.0922   ZZ=   -22.3948
   XY=     1.5755   XZ=     0.0000   YZ=     0.0000

 Normal termination of Gaussian 03 at Mon Oct  1 11:38:20 2007.
