 Gaussian 03, Revision D.01,
 Gaussian 03:  AM64L-G03RevD.01 13-Oct-2005

 ----------------------------
 #P HF/STO-3G SCAN NOSYMMETRY
 ----------------------------

 -----------
 C2H4F2 Scan
 -----------
 Symbolic Z-matrix:
 Charge =  0 Multiplicity = 1

 SCF Done:  E(RHF) =  -273.191328495     A.U. after    9 cycles

 Alpha  occ. eigenvalues --  -25.92974 -25.92971 -11.12172 -11.12136  -1.49271
 Alpha  occ. eigenvalues --   -1.47240  -0.97118  -0.79670  -0.64753  -0.62246
 Alpha  occ. eigenvalues --   -0.56283  -0.55119  -0.50763  -0.46243  -0.43520
 Alpha  occ. eigenvalues --   -0.40079  -0.39114
 Alpha virt. eigenvalues --    0.50137   0.57592   0.63549   0.65321   0.67448
 Alpha virt. eigenvalues --    0.72383   0.75241

 Mulliken atomic charges:
              1
     1  C    0.021513
     2  C    0.021513
     3  F   -0.141981
     4  H    0.060410
     5  H    0.060058
     6  F   -0.141981
     7  H    0.060410
     8  H    0.060058
 Sum of Mulliken charges=   0.00000

 Dipole moment (field-independent basis, Debye):
    X=    -2.0825    Y=     0.1365    Z=     0.0000  Tot=     2.0870
 Quadrupole moment (field-independent basis, Debye-Ang):
   XX=   -23.3492   YY=   -19.9129   ZZ=   -21.9877
   XY=     0.2262   XZ=    -1.6136   YZ=    -0.0714

 SCF Done:  E(RHF) =  -273.192688428     A.U. after   12 cycles
 SCF Done:  E(RHF) =  -273.194699103     A.U. after   12 cycles
 SCF Done:  E(RHF) =  -273.196402699     A.U. after   12 cycles
 SCF Done:  E(RHF) =  -273.197108060     A.U. after   12 cycles
 SCF Done:  E(RHF) =  -273.196692719     A.U. after   11 cycles
 SCF Done:  E(RHF) =  -273.195614876     A.U. after   11 cycles
 SCF Done:  E(RHF) =  -273.194632178     A.U. after   11 cycles
 SCF Done:  E(RHF) =  -273.194358583     A.U. after   11 cycles
 SCF Done:  E(RHF) =  -273.194912578     A.U. after   12 cycles
 SCF Done:  E(RHF) =  -273.194913270     A.U. after   12 cycles
 SCF Done:  E(RHF) =  -273.194358522     A.U. after   11 cycles
 SCF Done:  E(RHF) =  -273.194631231     A.U. after   11 cycles
 SCF Done:  E(RHF) =  -273.195613506     A.U. after   11 cycles
 SCF Done:  E(RHF) =  -273.196691741     A.U. after   12 cycles
 SCF Done:  E(RHF) =  -273.197108180     A.U. after   12 cycles
 SCF Done:  E(RHF) =  -273.196404100     A.U. after   12 cycles
 SCF Done:  E(RHF) =  -273.194701291     A.U. after   12 cycles
 SCF Done:  E(RHF) =  -273.192690418     A.U. after   12 cycles

                         Z-Matrix orientation:
 ---------------------------------------------------------------------
 Center     Atomic     Atomic              Coordinates (Angstroms)
 Number     Number      Type              X           Y           Z
 ---------------------------------------------------------------------
    1          6             0        0.000000    0.000000    0.000000
    2          6             0        0.000000    0.000000    1.538600
    3          9             0        1.314284    0.000000    2.005100
    4          1             0       -0.530802    0.902157    1.921490
    5          1             0       -0.530988   -0.902048    1.921490
    6          9             0        1.303040    0.171548   -0.466500
    7          1             0       -0.408506   -0.963723   -0.382890
    8          1             0       -0.644186    0.825023   -0.382890
 ---------------------------------------------------------------------

 SCF Done:  E(RHF) =  -273.191329297     A.U. after   12 cycles
 Normal termination of Gaussian 03 at Tue Oct  2 02:29:18 2007.
