 Gaussian 03, Revision D.01,
 Gaussian 03:  AM64L-G03RevD.01 13-Oct-2005

 ---------------------------
 #P HF/3-21G opt=(ts,calcfc)
 ---------------------------

 ------------------------------
 C2H4F2 transition state search
 ------------------------------
 Symbolic Z-matrix:
 Charge =  0 Multiplicity = 1

 SCF Done:  E(RHF) =  -275.415330002     A.U. after   11 cycles

  Exact polarizability:  19.303   0.290  19.831   0.000   0.000  19.072
 Approx polarizability:  14.494  -0.326  17.010   0.000   0.000  15.748

 SCF Done:  E(RHF) =  -275.415323572     A.U. after    9 cycles
 Optimization completed.
    -- Stationary point found.

                         Standard orientation:
 ---------------------------------------------------------------------
 Center     Atomic     Atomic              Coordinates (Angstroms)
 Number     Number      Type              X           Y           Z
 ---------------------------------------------------------------------
    1          6             0       -0.707623   -0.287035    0.316694
    2          6             0        0.707623    0.287035    0.316694
    3          9             0        0.707623    1.534386   -0.332801
    4          1             0        1.085359    0.433456    1.315373
    5          1             0        1.345858   -0.395105   -0.220322
    6          9             0       -0.707623   -1.534386   -0.332801
    7          1             0       -1.085359   -0.433456    1.315373
    8          1             0       -1.345858    0.395105   -0.220322
 ---------------------------------------------------------------------

 The electronic state is 1-A.
 Alpha  occ. eigenvalues --  -26.13728 -26.13722 -11.26439 -11.26398  -1.57094
 Alpha  occ. eigenvalues --   -1.56348  -1.04595  -0.88108  -0.72731  -0.70489
 Alpha  occ. eigenvalues --   -0.68113  -0.65501  -0.63396  -0.59772  -0.54037
 Alpha  occ. eigenvalues --   -0.51402  -0.49948
 Alpha virt. eigenvalues --    0.25501   0.25898   0.30903   0.33865   0.37716
 Alpha virt. eigenvalues --    0.41353   0.43784   0.91685   0.94529   0.95791
 Alpha virt. eigenvalues --    0.99736   1.02960   1.16224   1.22693   1.29028

 Mulliken atomic charges:
              1
     1  C   -0.054860
     2  C   -0.054860
     3  F   -0.406021
     4  H    0.216567
     5  H    0.244315
     6  F   -0.406021
     7  H    0.216567
     8  H    0.244315
 Sum of Mulliken charges=   0.00000

 Dipole moment (field-independent basis, Debye):
    X=     0.0000    Y=     0.0000    Z=     2.0156  Tot=     2.0156
 Quadrupole moment (field-independent basis, Debye-Ang):
   XX=   -21.4005   YY=   -29.4885   ZZ=   -21.5296
   XY=    -3.1430   XZ=     0.0000   YZ=     0.0000

 Normal termination of Gaussian 03 at Mon Oct  8 14:42:58 2007.
