 Gaussian 03, Revision D.01,
 Gaussian 03:  AM64L-G03RevD.01 13-Oct-2005

 -----------------------------------
 #N HF/3-21G opt=z-matrix NOSYMMETRY
 -----------------------------------

 ----------------------
 C2H4F2 Coordinate Drag
 ----------------------
 Symbolic Z-matrix:
 Charge =  0 Multiplicity = 1

 SCF Done:  E(RHF) =  -275.411003086     A.U. after   11 cycles
 SCF Done:  E(RHF) =  -275.415568032     A.U. after   10 cycles
 SCF Done:  E(RHF) =  -275.415674235     A.U. after    9 cycles
 SCF Done:  E(RHF) =  -275.415679125     A.U. after    9 cycles
 Optimization completed.
    -- Stationary point found.
 SCF Done:  E(RHF) =  -275.416698069     A.U. after   10 cycles
 SCF Done:  E(RHF) =  -275.416708762     A.U. after    9 cycles
 SCF Done:  E(RHF) =  -275.416710883     A.U. after    8 cycles
 Optimization completed.
 SCF Done:  E(RHF) =  -275.417516404     A.U. after   10 cycles
 SCF Done:  E(RHF) =  -275.417530866     A.U. after    9 cycles
 SCF Done:  E(RHF) =  -275.418101565     A.U. after   10 cycles
 SCF Done:  E(RHF) =  -275.418748801     A.U. after   10 cycles
 SCF Done:  E(RHF) =  -275.418769277     A.U. after    9 cycles
 SCF Done:  E(RHF) =  -275.419213236     A.U. after   10 cycles
 SCF Done:  E(RHF) =  -275.419236418     A.U. after    9 cycles
 SCF Done:  E(RHF) =  -275.419566312     A.U. after   10 cycles
 SCF Done:  E(RHF) =  -275.419591453     A.U. after    9 cycles
 SCF Done:  E(RHF) =  -275.419786492     A.U. after   10 cycles
 SCF Done:  E(RHF) =  -275.419813120     A.U. after    9 cycles
    -- Stationary point found.
 SCF Done:  E(RHF) =  -275.419861248     A.U. after   10 cycles
 SCF Done:  E(RHF) =  -275.419888498     A.U. after    9 cycles
 Optimization completed.
    -- Stationary point found.

                         Z-Matrix orientation:
 ---------------------------------------------------------------------
 Center     Atomic     Atomic              Coordinates (Angstroms)
 Number     Number      Type              X           Y           Z
 ---------------------------------------------------------------------
    1          6             0        0.000000    0.000000    0.000000
    2          6             0        0.000000    0.000000    1.514539
    3          9             0        1.343009    0.000000    1.926488
    4          1             0       -0.493327    0.879941    1.892773
    5          1             0       -0.494121   -0.879612    1.892608
    6          9             0       -1.343009    0.000000   -0.411949
    7          1             0        0.493327    0.879941   -0.378234
    8          1             0        0.494121   -0.879612   -0.378069
 ---------------------------------------------------------------------

 Alpha  occ. eigenvalues --  -26.14271 -26.14257 -11.26409 -11.26370  -1.57573
 Alpha  occ. eigenvalues --   -1.56893  -1.04734  -0.88225  -0.73426  -0.69631
 Alpha  occ. eigenvalues --   -0.69115  -0.66636  -0.62862  -0.60135  -0.55320
 Alpha  occ. eigenvalues --   -0.50739  -0.50237
 Alpha virt. eigenvalues --    0.25810   0.26938   0.30442   0.33009   0.36824
 Alpha virt. eigenvalues --    0.42684   0.43757   0.89622   0.94440   0.95776
 Alpha virt. eigenvalues --    0.98891   1.00619   1.13716   1.22959   1.30613

 Mulliken atomic charges:
              1
     1  C   -0.044429
     2  C   -0.044429
     3  F   -0.404855
     4  H    0.224654
     5  H    0.224630
     6  F   -0.404855
     7  H    0.224654
     8  H    0.224630
 Sum of Mulliken charges=   0.00000

 Dipole moment (field-independent basis, Debye):
    X=     0.0000    Y=     0.0000    Z=     0.0000  Tot=     0.0000
 Quadrupole moment (field-independent basis, Debye-Ang):
   XX=   -27.9579   YY=   -21.1975   ZZ=   -24.2747
   XY=     0.0000   XZ=    -5.5161   YZ=     0.0000

 Normal termination of Gaussian 03 at Sun Oct  7 21:12:00 2007.
