 Gaussian 03, Revision D.01,
 Gaussian 03:  AM64L-G03RevD.01 13-Oct-2005

 -------------------------
 #P HF/3-21G opt=cartesian
 -------------------------

 -----------
 C2H4F2 Scan
 -----------
 Symbolic Z-matrix:
 Charge =  0 Multiplicity = 1

 SCF Done:  E(RHF) =  -275.413505763     A.U. after   11 cycles
 SCF Done:  E(RHF) =  -275.418037098     A.U. after   12 cycles
 SCF Done:  E(RHF) =  -275.418324576     A.U. after   10 cycles
 SCF Done:  E(RHF) =  -275.418536314     A.U. after   10 cycles
 SCF Done:  E(RHF) =  -275.418560245     A.U. after    9 cycles
 SCF Done:  E(RHF) =  -275.418568090     A.U. after    9 cycles
 SCF Done:  E(RHF) =  -275.418571042     A.U. after    9 cycles
 SCF Done:  E(RHF) =  -275.418571250     A.U. after    8 cycles
 Optimization completed.
    -- Stationary point found.

                         Standard orientation:
 ---------------------------------------------------------------------
 Center     Atomic     Atomic              Coordinates (Angstroms)
 Number     Number      Type              X           Y           Z
 ---------------------------------------------------------------------
    1          6             0       -0.651402   -0.378636    0.510032
    2          6             0        0.651402    0.378636    0.510032
    3          9             0        0.651402    1.309669   -0.541573
    4          1             0        0.768494    0.911345    1.440811
    5          1             0        1.473102   -0.305436    0.373155
    6          9             0       -0.651402   -1.309669   -0.541573
    7          1             0       -0.768494   -0.911345    1.440811
    8          1             0       -1.473102    0.305436    0.373155
 ---------------------------------------------------------------------

 The electronic state is 1-A.
 Alpha  occ. eigenvalues --  -26.13503 -26.13502 -11.26489 -11.26450  -1.57068
 Alpha  occ. eigenvalues --   -1.55902  -1.05473  -0.87716  -0.72081  -0.72009
 Alpha  occ. eigenvalues --   -0.67806  -0.64363  -0.63865  -0.59692  -0.53170
 Alpha  occ. eigenvalues --   -0.52378  -0.49857
 Alpha virt. eigenvalues --    0.26623   0.28610   0.30219   0.33026   0.36312
 Alpha virt. eigenvalues --    0.38497   0.42906   0.93217   0.93600   0.95729
 Alpha virt. eigenvalues --    1.00222   1.05413   1.08115   1.21217   1.30357

 Mulliken atomic charges:
              1
     1  C   -0.036462
     2  C   -0.036462
     3  F   -0.400492
     4  H    0.204709
     5  H    0.232245
     6  F   -0.400492
     7  H    0.204709
     8  H    0.232245
 Sum of Mulliken charges=   0.00000

 Dipole moment (field-independent basis, Debye):
    X=     0.0000    Y=     0.0000    Z=     3.2896  Tot=     3.2896
 Quadrupole moment (field-independent basis, Debye-Ang):
   XX=   -21.3826   YY=   -26.9067   ZZ=   -22.0797
   XY=    -2.2266   XZ=     0.0000   YZ=     0.0000

 Normal termination of Gaussian 03 at Wed Oct  3 23:18:10 2007.
