 Gaussian 03, Revision D.01,
 Gaussian 03:  AM64L-G03RevD.01 13-Oct-2005

 --------------------------------------
 #P HF/3-21G freq guess=read geom=check
 --------------------------------------

 C2H4F2 transition state vib. spectrum
 -------------------------------------
 Redundant internal coordinates taken from checkpoint file:
 C2H4F2-ts.chk
 Charge =  0 Multiplicity = 1

                         Standard orientation:
 ---------------------------------------------------------------------
 Center     Atomic     Atomic              Coordinates (Angstroms)
 Number     Number      Type              X           Y           Z
 ---------------------------------------------------------------------
    1          6             0       -0.707623   -0.287035    0.316694
    2          6             0        0.707623    0.287035    0.316694
    3          9             0        0.707623    1.534386   -0.332801
    4          1             0        1.085359    0.433456    1.315373
    5          1             0        1.345858   -0.395105   -0.220322
    6          9             0       -0.707623   -1.534386   -0.332801
    7          1             0       -1.085359   -0.433456    1.315373
    8          1             0       -1.345858    0.395105   -0.220322
 ---------------------------------------------------------------------

 SCF Done:  E(RHF) =  -275.415323572     A.U. after    1 cycles

 The electronic state is 1-A.
 Alpha  occ. eigenvalues --  -26.13728 -26.13722 -11.26439 -11.26398  -1.57094
 Alpha  occ. eigenvalues --   -1.56348  -1.04595  -0.88108  -0.72731  -0.70489
 Alpha  occ. eigenvalues --   -0.68113  -0.65501  -0.63396  -0.59772  -0.54037
 Alpha  occ. eigenvalues --   -0.51402  -0.49948
 Alpha virt. eigenvalues --    0.25501   0.25898   0.30903   0.33865   0.37716
 Alpha virt. eigenvalues --    0.41353   0.43784   0.91685   0.94529   0.95791
 Alpha virt. eigenvalues --    0.99736   1.02960   1.16224   1.22693   1.29028

 Mulliken atomic charges:
              1
     1  C   -0.054860
     2  C   -0.054860
     3  F   -0.406021
     4  H    0.216567
     5  H    0.244315
     6  F   -0.406021
     7  H    0.216567
     8  H    0.244315
 Sum of Mulliken charges=   0.00000

 Dipole moment (field-independent basis, Debye):
    X=     0.0000    Y=     0.0000    Z=     2.0156  Tot=     2.0156
 Quadrupole moment (field-independent basis, Debye-Ang):
   XX=   -21.4005   YY=   -29.4885   ZZ=   -21.5296
   XY=    -3.1430   XZ=     0.0000   YZ=     0.0000

  Exact polarizability:  19.312   0.288  19.829   0.000   0.000  19.066
 Approx polarizability:  14.494  -0.324  17.022   0.000   0.000  15.731

 ******    1 imaginary frequencies (negative Signs) ******

                     1                      2                      3
                     A                      B                      A
 Frequencies --  -136.8332               410.0153               430.5866
 Red. masses --     3.0107                 3.1799                 4.8560
 Frc consts  --     0.0332                 0.3150                 0.5305
 IR Inten    --    15.0810                23.3890                 0.2603
 Raman Activ --     0.0120                 0.1301                 1.5773

                     4                      5                      6
                     A                      A                      B
 Frequencies --   896.1997              1089.1491              1105.7665
 Red. masses --     1.8206                 3.2241                 4.1501
 Frc consts  --     0.8615                 2.2534                 2.9898
 IR Inten    --     8.5588                 0.4018                90.1535
 Raman Activ --     6.4921                 9.3093                 3.6549

                     7                      8                      9
                     A                      B                      B
 Frequencies --  1178.5476              1220.5589              1377.5363
 Red. masses --     3.6645                 1.9810                 1.0613
 Frc consts  --     2.9989                 1.7388                 1.1865
 IR Inten    --    17.2816                17.9790                 1.9755
 Raman Activ --     8.8116                 4.2786                10.0075

                    10                     11                     12
                     A                      B                      A
 Frequencies --  1386.8312              1535.4914              1565.9102
 Red. masses --     1.0952                 1.2396                 1.2921
 Frc consts  --     1.2411                 1.7219                 1.8667
 IR Inten    --     2.8100                11.5605                 2.5168
 Raman Activ --    12.4135                 3.8221                 2.7077

                    13                     14                     15
                     A                      B                      B
 Frequencies --  1669.1965              1686.1119              3265.2650
 Red. masses --     1.0752                 1.0925                 1.0585
 Frc consts  --     1.7650                 1.8300                 6.6494
 IR Inten    --     0.0613                 4.8847                24.3828
 Raman Activ --    15.0865                11.5986                20.5554

                    16                     17                     18
                     A                      B                      A
 Frequencies --  3272.6812              3316.7497              3328.8445
 Red. masses --     1.0560                 1.1070                 1.1101
 Frc consts  --     6.6637                 7.1748                 7.2474
 IR Inten    --     9.3857                10.9988                38.4286
 Raman Activ --   147.1169                54.8812                45.4082

 - Thermochemistry -
 -------------------
 Temperature   298.150 Kelvin.  Pressure   1.00000 Atm.
 Atom  1 has atomic number  6 and mass  12.00000

 Molecular mass:    66.02811 amu.
 Principal axes and moments of inertia in atomic units:
                           1         2         3
     EIGENVALUES --    75.21785 458.13852 461.37175
           X            0.49322   0.86991   0.00000
           Y            0.86991  -0.49322   0.00000
           Z            0.00000   0.00000   1.00000
 This molecule is an asymmetric top.
 Rotational symmetry number  2.
 Rotational temperatures (Kelvin)      1.15151     0.18906     0.18773
 Rotational constants (GHZ):          23.99352     3.93929     3.91169
    1 imaginary frequencies ignored.
 Zero-point vibrational energy     171876.1 (Joules/Mol)
                                   41.07938 (Kcal/Mol)
 Warning -- explicit consideration of   2 degrees of freedom as
           vibrations may cause significant error
 Vibrational temperatures:    589.92   619.52  1289.43  1567.04  1590.95
          (Kelvin)           1695.67  1756.11  1981.97  1995.34  2209.23
                             2252.99  2401.60  2425.94  4697.98  4708.65
                             4772.06  4789.46

 Zero-point correction=                           0.065464 (Hartree/Particle)
 Thermal correction to Energy=                    0.069045
 Thermal correction to Enthalpy=                  0.069989
 Thermal correction to Gibbs Free Energy=         0.039778
 Sum of electronic and zero-point Energies=           -275.349859
 Sum of electronic and thermal Energies=              -275.346279
 Sum of electronic and thermal Enthalpies=            -275.345335
 Sum of electronic and thermal Free Energies=         -275.375546

                     E (Thermal)             CV                S
                      KCal/Mol        Cal/Mol-Kelvin    Cal/Mol-Kelvin
 Total                   43.326             10.725             63.585
 Electronic               0.000              0.000              0.000
 Translational            0.889              2.981             38.481
 Rotational               0.889              2.981             22.901
 Vibrational             41.549              4.763              2.203
 Vibration  1             0.774              1.448              0.927
 Vibration  2             0.792              1.404              0.857

 Optimization completed.
    -- Stationary point found.
 Normal termination of Gaussian 03 at Mon Oct  8 14:57:27 2007.
