 Gaussian 03, Revision D.01,
 Gaussian 03:  AM64L-G03RevD.01 13-Oct-2005

 -----
 #N G2
 -----

 -----------
 e-C2H4F2 G2
 -----------
 Symbolic Z-matrix:
 Charge =  0 Multiplicity = 1

 SCF Done:  E(RHF) =  -276.903913742     A.U. after   11 cycles
 SCF Done:  E(RHF) =  -276.909085187     A.U. after   10 cycles
 SCF Done:  E(RHF) =  -276.909416508     A.U. after   10 cycles
 SCF Done:  E(RHF) =  -276.909453701     A.U. after    9 cycles
 SCF Done:  E(RHF) =  -276.909455272     A.U. after    8 cycles
 Optimization completed.
    -- Stationary point found.
 Normal termination of Gaussian 03 at Thu Oct 18 11:18:13 2007.

 -------------------------------------------------------
 #N Geom=AllCheck Guess=Read SCRF=Check HF/6-31G(d) Freq
 -------------------------------------------------------

 e-C2H4F2 G2
 -----------
 Redundant internal coordinates taken from checkpoint file:
 e-C2H4F2-G2.chk
 Charge =  0 Multiplicity = 1

 SCF Done:  E(RHF) =  -276.909455272     A.U. after    1 cycles

  Exact polarizability:  21.796   0.000  21.943   0.000   0.000  21.269
 Approx polarizability:  18.869   0.000  17.039   0.000   0.000  18.761

 ******    1 imaginary frequencies (negative Signs) ******

                     1                      2                      3
                    A2                     A1                     B2
 Frequencies --  -227.1745               302.1002               671.4287
 Red. masses --     1.9609                17.5271                 6.6764
 Frc consts  --     0.0596                 0.9425                 1.7733
 IR Inten    --     0.0000                 0.5977                37.7345
 Raman Activ --     0.0195                 0.0349                 3.2151

                     4                      5                      6
                    B1                     A1                     B2
 Frequencies --   916.5339               994.4308              1214.4641
 Red. masses --     1.1585                 3.7213                 5.4083
 Frc consts  --     0.5734                 2.1682                 4.6998
 IR Inten    --     2.3713                34.9430                14.5096
 Raman Activ --     0.1108                14.9080                 0.7867

                     7                      8                      9
                    A1                     A2                     A2
 Frequencies --  1269.4509              1287.5539              1396.9454
 Red. masses --     4.7804                 1.6507                 1.0624
 Frc consts  --     4.5389                 1.6124                 1.2215
 IR Inten    --   159.3167                 0.0000                 0.0000
 Raman Activ --     8.6941                 0.0685                12.3056

                    10                     11                     12
                    B1                     B2                     A1
 Frequencies --  1416.3750              1575.1275              1586.7185
 Red. masses --     1.0958                 1.2933                 1.3547
 Frc consts  --     1.2952                 1.8906                 2.0095
 IR Inten    --     2.3203                19.9639                19.7698
 Raman Activ --    12.7099                 0.6297                 5.0517

                    13                     14                     15
                    B2                     A1                     B2
 Frequencies --  1675.6694              1695.6718              3239.6679
 Red. masses --     1.0918                 1.0992                 1.0568
 Frc consts  --     1.8062                 1.8621                 6.5348
 IR Inten    --     0.0020                 0.2974                39.2772
 Raman Activ --    11.8607                 7.9404                16.7067

                    16                     17                     18
                    A1                     A2                     B1
 Frequencies --  3256.4122              3276.4620              3306.7849
 Red. masses --     1.0587                 1.1118                 1.1119
 Frc consts  --     6.6146                 7.0323                 7.1637
 IR Inten    --    56.0647                 0.0000               107.9032
 Raman Activ --   165.2591                61.3695                54.3124

 - Thermochemistry -
 -------------------
 Temperature   298.150 Kelvin.  Pressure   1.00000 Atm.
 Atom  1 has atomic number  6 and mass  12.00000

 Molecular mass:    66.02811 amu.
 Principal axes and moments of inertia in atomic units:
                           1         2         3
     EIGENVALUES --   118.68929 290.76419 387.24092
           X            0.00000   0.00000   1.00000
           Y            1.00000   0.00000   0.00000
           Z            0.00000   1.00000   0.00000
 This molecule is an asymmetric top.
 Rotational symmetry number  2.
 Rotational temperatures (Kelvin)      0.72975     0.29788     0.22367
 Rotational constants (GHZ):          15.20559     6.20689     4.66051
    1 imaginary frequencies ignored.
 Zero-point vibrational energy     173947.8 (Joules/Mol)
                                   41.57452 (Kcal/Mol)
 Warning -- explicit consideration of   1 degrees of freedom as
           vibrations may cause significant error
 Vibrational temperatures:    434.65   966.04  1318.69  1430.76  1747.34
          (Kelvin)           1826.45  1852.50  2009.89  2037.85  2266.25
                             2282.93  2410.91  2439.69  4661.15  4685.25
                             4714.09  4757.72

 Zero-point correction=                           0.066253 (Hartree/Particle)
 Thermal correction to Energy=                    0.069783
 Thermal correction to Enthalpy=                  0.070727
 Thermal correction to Gibbs Free Energy=         0.040630
 Sum of electronic and zero-point Energies=           -276.843202
 Sum of electronic and thermal Energies=              -276.839673
 Sum of electronic and thermal Enthalpies=            -276.838728
 Sum of electronic and thermal Free Energies=         -276.868825

                     E (Thermal)             CV                S
                      KCal/Mol        Cal/Mol-Kelvin    Cal/Mol-Kelvin
 Total                   43.789             10.288             63.344
 Electronic               0.000              0.000              0.000
 Translational            0.889              2.981             38.481
 Rotational               0.889              2.981             22.729
 Vibrational             42.012              4.326              2.134
 Vibration  1             0.694              1.670              1.405

 Optimization completed.
    -- Stationary point found.
 Normal termination of Gaussian 03 at Thu Oct 18 11:18:31 2007.

 ------------------------------------------------------------------
 #N Geom=AllCheck Guess=Read SCRF=Check MP2(Full)/6-31G(d) Opt=RCFC
 ------------------------------------------------------------------

 e-C2H4F2 G2
 -----------
 Redundant internal coordinates taken from checkpoint file:
 e-C2H4F2-G2.chk
 Charge =  0 Multiplicity = 1

 SCF Done:  E(RHF) =  -276.909455272     A.U. after    1 cycles
 E2 =    -0.6086768614D+00 EUMP2 =    -0.27751813213319D+03
 SCF Done:  E(RHF) =  -276.908105879     A.U. after   10 cycles
 E2 =    -0.6113798446D+00 EUMP2 =    -0.27751948572372D+03
 SCF Done:  E(RHF) =  -276.907953039     A.U. after    9 cycles
 E2 =    -0.6116281094D+00 EUMP2 =    -0.27751958114852D+03
 SCF Done:  E(RHF) =  -276.907924002     A.U. after    8 cycles
 E2 =    -0.6116616347D+00 EUMP2 =    -0.27751958563632D+03
 Optimization completed.
    -- Stationary point found.
 Normal termination of Gaussian 03 at Thu Oct 18 11:19:09 2007.

 ---------------------------------------------------------------
 #N Geom=AllCheck Guess=Read SCRF=Check QCISD(T,E4T)/6-311G(d,p)
 ---------------------------------------------------------------

 e-C2H4F2 G2
 -----------
 Redundant internal coordinates taken from checkpoint file:
 e-C2H4F2-G2.chk
 Charge =  0 Multiplicity = 1

 SCF Done:  E(RHF) =  -276.989089344     A.U. after   10 cycles
 Normal termination of Gaussian 03 at Thu Oct 18 11:22:06 2007.

 -------------------------------------------------------
 #N Geom=AllCheck Guess=Read SCRF=Check MP4/6-311+G(d,p)
 -------------------------------------------------------

 e-C2H4F2 G2
 -----------
 Redundant internal coordinates taken from checkpoint file:
 e-C2H4F2-G2.chk
 Charge =  0 Multiplicity = 1

 SCF Done:  E(RHF) =  -276.997485587     A.U. after   10 cycles
 Normal termination of Gaussian 03 at Thu Oct 18 11:24:18 2007.

 --------------------------------------------------------
 #N Geom=AllCheck Guess=Read SCRF=Check MP4/6-311G(2df,p)
 --------------------------------------------------------

 e-C2H4F2 G2
 -----------
 Redundant internal coordinates taken from checkpoint file:
 e-C2H4F2-G2.chk
 Charge =  0 Multiplicity = 1

 SCF Done:  E(RHF) =  -277.003248074     A.U. after   10 cycles
 Normal termination of Gaussian 03 at Thu Oct 18 11:30:51 2007.

                         Standard orientation:
 ---------------------------------------------------------------------
 Center     Atomic     Atomic              Coordinates (Angstroms)
 Number     Number      Type              X           Y           Z
 ---------------------------------------------------------------------
    1          6             0        0.000000    0.771188    0.631626
    2          6             0        0.000000   -0.771188    0.631626
    3          9             0        0.000000   -1.238889   -0.672935
    4          1             0        0.887936   -1.165718    1.133328
    5          1             0       -0.887936   -1.165718    1.133328
    6          9             0        0.000000    1.238889   -0.672935
    7          1             0       -0.887936    1.165718    1.133328
    8          1             0        0.887936    1.165718    1.133328
 ---------------------------------------------------------------------

 SCF Done:  E(RHF) =  -277.016822542     A.U. after   10 cycles
 E2 =    -0.8440192386D+00 EUMP2 =    -0.27786084178077D+03

 The electronic state is 1-A1.
 Alpha  occ. eigenvalues --  -26.28507 -26.28506 -11.32472 -11.32414  -1.60277
 Alpha  occ. eigenvalues --   -1.58397  -1.03897  -0.88100  -0.73402  -0.73328
 Alpha  occ. eigenvalues --   -0.69994  -0.68203  -0.65910  -0.61076  -0.57290
 Alpha  occ. eigenvalues --   -0.51422  -0.50071
 Alpha virt. eigenvalues --    0.06406   0.08414   0.08957   0.09329   0.12248
 Alpha virt. eigenvalues --    0.12819   0.13645   0.18509   0.23273   0.23876
 Alpha virt. eigenvalues --    0.27271   0.29931   0.31446   0.34851   0.36542

 Mulliken atomic charges:
              1
     1  C    0.310582
     2  C    0.310582
     3  F   -0.560387
     4  H    0.124902
     5  H    0.124902
     6  F   -0.560387
     7  H    0.124902
     8  H    0.124902
 Sum of Mulliken charges=   0.00000

 Dipole moment (field-independent basis, Debye):
    X=     0.0000    Y=     0.0000    Z=     3.6746  Tot=     3.6746
 Quadrupole moment (field-independent basis, Debye-Ang):
   XX=   -21.4222   YY=   -24.7536   ZZ=   -22.8071
   XY=     0.0000   XZ=     0.0000   YZ=     0.0000

    1 imaginary frequencies ignored.
 Normal termination of Gaussian 03 at Thu Oct 18 11:32:25 2007.
