 Gaussian 03, Revision D.01,
 Gaussian 03:  AM64L-G03RevD.01 13-Oct-2005

 ---------------
 #P HF/3-21G opt
 ---------------

 -----------
 C2H4F2 Scan
 -----------
 Symbolic Z-matrix:
 Charge =  0 Multiplicity = 1

 SCF Done:  E(RHF) =  -275.401987886     A.U. after   11 cycles
 SCF Done:  E(RHF) =  -275.405340830     A.U. after   10 cycles
 SCF Done:  E(RHF) =  -275.405435503     A.U. after    9 cycles
 SCF Done:  E(RHF) =  -275.405446833     A.U. after    8 cycles
 Optimization completed.
    -- Stationary point found.

                         Standard orientation:
 ---------------------------------------------------------------------
 Center     Atomic     Atomic              Coordinates (Angstroms)
 Number     Number      Type              X           Y           Z
 ---------------------------------------------------------------------
    1          6             0        0.000000    0.772884    0.639173
    2          6             0        0.000000   -0.772884    0.639173
    3          9             0        0.000000   -1.238714   -0.679181
    4          1             0        0.876475   -1.155253    1.138797
    5          1             0       -0.876475   -1.155253    1.138797
    6          9             0        0.000000    1.238714   -0.679181
    7          1             0       -0.876475    1.155253    1.138797
    8          1             0        0.876475    1.155253    1.138797
 ---------------------------------------------------------------------

 The electronic state is 1-A1.
 Alpha  occ. eigenvalues --  -26.13366 -26.13335 -11.26597 -11.26551  -1.57312
 Alpha  occ. eigenvalues --   -1.55293  -1.04275  -0.87599  -0.72662  -0.71430
 Alpha  occ. eigenvalues --   -0.66345  -0.66142  -0.62545  -0.58329  -0.55248
 Alpha  occ. eigenvalues --   -0.49717  -0.49634
 Alpha virt. eigenvalues --    0.23635   0.27598   0.29129   0.32384   0.39890
 Alpha virt. eigenvalues --    0.40296   0.46659   0.88524   0.94180   0.98293
 Alpha virt. eigenvalues --    0.99261   1.00302   1.20834   1.21037   1.28273

 Mulliken atomic charges:
              1
     1  C   -0.037426
     2  C   -0.037426
     3  F   -0.387567
     4  H    0.212497
     5  H    0.212497
     6  F   -0.387567
     7  H    0.212497
     8  H    0.212497
 Sum of Mulliken charges=   0.00000

 Dipole moment (field-independent basis, Debye):
    X=     0.0000    Y=     0.0000    Z=     4.0457  Tot=     4.0457
 Quadrupole moment (field-independent basis, Debye-Ang):
   XX=   -21.3972   YY=   -24.7204   ZZ=   -22.3297
   XY=     0.0000   XZ=     0.0000   YZ=     0.0000

 Normal termination of Gaussian 03 at Thu Oct  4 09:56:45 2007.
