 Gaussian 03, Revision D.01,
 Gaussian 03:  AM64L-G03RevD.01 13-Oct-2005

 ------------------------------------------------
 #P HF/3-21G Geom=Checkpoint Guess=Read Frequency
 ------------------------------------------------

 gauche-C2H4F2
 -------------
 Redundant internal coordinates taken from checkpoint file:
 C2H4F2-gdiis.chk
 Charge =  0 Multiplicity = 1

                         Standard orientation:
 ---------------------------------------------------------------------
 Center     Atomic     Atomic              Coordinates (Angstroms)
 Number     Number      Type              X           Y           Z
 ---------------------------------------------------------------------
    1          6             0       -0.651412   -0.378598    0.509479
    2          6             0        0.651412    0.378598    0.509479
    3          9             0        0.651412    1.310669   -0.541048
    4          1             0        0.769043    0.909959    1.441075
    5          1             0        1.472756   -0.305738    0.371488
    6          9             0       -0.651412   -1.310669   -0.541048
    7          1             0       -0.769043   -0.909959    1.441075
    8          1             0       -1.472756    0.305738    0.371488
 ---------------------------------------------------------------------

 SCF Done:  E(RHF) =  -275.418571367     A.U. after    1 cycles

 The electronic state is 1-A.
 Alpha  occ. eigenvalues --  -26.13509 -26.13507 -11.26490 -11.26451  -1.57075
 Alpha  occ. eigenvalues --   -1.55911  -1.05475  -0.87713  -0.72079  -0.72013
 Alpha  occ. eigenvalues --   -0.67813  -0.64367  -0.63877  -0.59696  -0.53164
 Alpha  occ. eigenvalues --   -0.52382  -0.49854
 Alpha virt. eigenvalues --    0.26619   0.28603   0.30223   0.33037   0.36320
 Alpha virt. eigenvalues --    0.38502   0.42908   0.93229   0.93601   0.95723
 Alpha virt. eigenvalues --    1.00229   1.05451   1.08081   1.21216   1.30349

 Mulliken atomic charges:
              1
     1  C   -0.036440
     2  C   -0.036440
     3  F   -0.400502
     4  H    0.204681
     5  H    0.232262
     6  F   -0.400502
     7  H    0.204681
     8  H    0.232262
 Sum of Mulliken charges=   0.00000

 Dipole moment (field-independent basis, Debye):
    X=     0.0000    Y=     0.0000    Z=     3.2858  Tot=     3.2858
 Quadrupole moment (field-independent basis, Debye-Ang):
   XX=   -21.3846   YY=   -26.9164   ZZ=   -22.0783
   XY=    -2.2290   XZ=     0.0000   YZ=     0.0000

  Exact polarizability:  19.281   0.043  19.712   0.000   0.000  19.926
 Approx polarizability:  14.799  -0.515  16.430   0.000   0.000  17.044

                     1                      2                      3
                     A                      A                      B
 Frequencies --   142.4959               338.4137               499.1148
 Red. masses --     4.8019                 2.6819                 2.5937
 Frc consts  --     0.0574                 0.1810                 0.3807
 IR Inten    --     6.4745                 0.8093                22.8532
 Raman Activ --     0.0757                 0.2935                 0.6543

                     4                      5                      6
                     A                      B                      B
 Frequencies --   928.5778              1009.6689              1182.6990
 Red. masses --     2.9848                 2.1900                 3.0365
 Frc consts  --     1.5163                 1.3154                 2.5025
 IR Inten    --    19.7065                38.6565                23.9554
 Raman Activ --     9.6582                 5.0985                 4.2662

                     7                      8                      9
                     A                      A                      B
 Frequencies --  1189.1059              1220.6366              1372.9600
 Red. masses --     3.9320                 1.9699                 1.0913
 Frc consts  --     3.2757                 1.7293                 1.2120
 IR Inten    --    49.1941                 8.5261                 3.5511
 Raman Activ --     7.0105                 3.4494                 7.5769

                    10                     11                     12
                     A                      A                      B
 Frequencies --  1435.7549              1574.0526              1581.0498
 Red. masses --     1.0758                 1.3466                 1.2796
 Frc consts  --     1.3066                 1.9658                 1.8846
 IR Inten    --     0.6231                12.9839                10.6732
 Raman Activ --    24.6359                 3.5486                 1.1789

                    13                     14                     15
                     A                      B                      B
 Frequencies --  1680.8954              1685.5738              3254.6433
 Red. masses --     1.0904                 1.0860                 1.0588
 Frc consts  --     1.8151                 1.8179                 6.6079
 IR Inten    --     0.0068                 4.0323                16.8285
 Raman Activ --     3.9062                20.0563                41.2769

                    16                     17                     18
                     A                      A                      B
 Frequencies --  3267.4469              3306.9230              3319.0553
 Red. masses --     1.0568                 1.1089                 1.1068
 Frc consts  --     6.6478                 7.1446                 7.1834
 IR Inten    --    20.4139                23.8524                36.8351
 Raman Activ --   148.8712                89.3435                12.2379

 - Thermochemistry -
 -------------------
 Temperature   298.150 Kelvin.  Pressure   1.00000 Atm.
 Atom  1 has atomic number  6 and mass  12.00000

 Molecular mass:    66.02811 amu.
 Principal axes and moments of inertia in atomic units:
                           1         2         3
     EIGENVALUES --   104.60668 365.82736 414.67170
           X            0.52645   0.00000   0.85021
           Y            0.85021   0.00000  -0.52645
           Z            0.00000   1.00000   0.00000
 This molecule is an asymmetric top.
 Rotational symmetry number  2.
 Rotational temperatures (Kelvin)      0.82800     0.23676     0.20887
 Rotational constants (GHZ):          17.25264     4.93331     4.35222
 Zero-point vibrational energy     173393.1 (Joules/Mol)
                                   41.44195 (Kcal/Mol)
 Warning -- explicit consideration of   3 degrees of freedom as
           vibrations may cause significant error
 Vibrational temperatures:    205.02   486.90   718.11  1336.01  1452.69
          (Kelvin)           1701.64  1710.86  1756.22  1975.38  2065.73
                             2264.71  2274.78  2418.43  2425.16  4682.70
                             4701.12  4757.92  4775.37

 Zero-point correction=                           0.066042 (Hartree/Particle)
 Thermal correction to Energy=                    0.070291
 Thermal correction to Enthalpy=                  0.071235
 Thermal correction to Gibbs Free Energy=         0.039671
 Sum of electronic and zero-point Energies=           -275.352529
 Sum of electronic and thermal Energies=              -275.348280
 Sum of electronic and thermal Enthalpies=            -275.347336
 Sum of electronic and thermal Free Energies=         -275.378901

                     E (Thermal)             CV                S
                      KCal/Mol        Cal/Mol-Kelvin    Cal/Mol-Kelvin
 Total                   44.108             12.574             66.434
 Electronic               0.000              0.000              0.000
 Translational            0.889              2.981             38.481
 Rotational               0.889              2.981             22.899
 Vibrational             42.331              6.612              5.054
 Vibration  1             0.616              1.911              2.770
 Vibration  2             0.719              1.599              1.220
 Vibration  3             0.855              1.252              0.660

 Optimization completed.
    -- Stationary point found.
 Normal termination of Gaussian 03 at Thu Oct  4 00:46:10 2007.
