 Gaussian 03, Revision D.01,
 Gaussian 03:  AM64L-G03RevD.01 13-Oct-2005

 ---------------
 #P HF/3-21G opt
 ---------------

 -----------
 C2H4F2 Scan
 -----------
 Symbolic Z-matrix:
 Charge =  0 Multiplicity = 1

 SCF Done:  E(RHF) =  -275.413505763     A.U. after   11 cycles
 SCF Done:  E(RHF) =  -275.417944744     A.U. after   12 cycles
 SCF Done:  E(RHF) =  -275.418520780     A.U. after   10 cycles
 SCF Done:  E(RHF) =  -275.418566124     A.U. after    9 cycles
 SCF Done:  E(RHF) =  -275.418570934     A.U. after    8 cycles
 SCF Done:  E(RHF) =  -275.418571376     A.U. after    8 cycles
 Optimization completed.
    -- Stationary point found.

                         Standard orientation:
 ---------------------------------------------------------------------
 Center     Atomic     Atomic              Coordinates (Angstroms)
 Number     Number      Type              X           Y           Z
 ---------------------------------------------------------------------
    1          6             0       -0.651375   -0.378659    0.509536
    2          6             0        0.651375    0.378659    0.509536
    3          9             0        0.651375    1.310594   -0.541105
    4          1             0        0.768943    0.910199    1.441036
    5          1             0        1.472782   -0.305629    0.371696
    6          9             0       -0.651375   -1.310594   -0.541105
    7          1             0       -0.768943   -0.910199    1.441036
    8          1             0       -1.472782    0.305629    0.371696
 ---------------------------------------------------------------------

 The electronic state is 1-A.
 Alpha  occ. eigenvalues --  -26.13509 -26.13507 -11.26490 -11.26451  -1.57075
 Alpha  occ. eigenvalues --   -1.55911  -1.05474  -0.87714  -0.72080  -0.72013
 Alpha  occ. eigenvalues --   -0.67813  -0.64368  -0.63877  -0.59696  -0.53165
 Alpha  occ. eigenvalues --   -0.52381  -0.49854
 Alpha virt. eigenvalues --    0.26619   0.28605   0.30223   0.33035   0.36320
 Alpha virt. eigenvalues --    0.38503   0.42908   0.93228   0.93600   0.95724
 Alpha virt. eigenvalues --    1.00229   1.05448   1.08084   1.21216   1.30349

 Mulliken atomic charges:
              1
     1  C   -0.036435
     2  C   -0.036435
     3  F   -0.400501
     4  H    0.204685
     5  H    0.232252
     6  F   -0.400501
     7  H    0.204685
     8  H    0.232252
 Sum of Mulliken charges=   0.00000

 Dipole moment (field-independent basis, Debye):
    X=     0.0000    Y=     0.0000    Z=     3.2861  Tot=     3.2861
 Quadrupole moment (field-independent basis, Debye-Ang):
   XX=   -21.3846   YY=   -26.9154   ZZ=   -22.0785
   XY=    -2.2284   XZ=     0.0000   YZ=     0.0000

 Normal termination of Gaussian 03 at Wed Oct  3 22:58:11 2007.
