 Gaussian 03, Revision D.01,
 Gaussian 03:  AM64L-G03RevD.01 13-Oct-2005

 -----
 #N G2
 -----

 -----------
 C2H4F2 Scan
 -----------
 Symbolic Z-matrix:
 Charge =  0 Multiplicity = 1

 SCF Done:  E(RHF) =  -276.915450133     A.U. after   11 cycles
 SCF Done:  E(RHF) =  -276.921041675     A.U. after   12 cycles
 SCF Done:  E(RHF) =  -276.921389603     A.U. after   10 cycles
 SCF Done:  E(RHF) =  -276.921400890     A.U. after    9 cycles
 SCF Done:  E(RHF) =  -276.921403036     A.U. after    8 cycles
 Optimization completed.
    -- Stationary point found.
 Normal termination of Gaussian 03 at Thu Oct 18 11:32:59 2007.

 -------------------------------------------------------
 #N Geom=AllCheck Guess=Read SCRF=Check HF/6-31G(d) Freq
 -------------------------------------------------------

 C2H4F2 Scan
 -----------
 Redundant internal coordinates taken from checkpoint file:
 g-C2H4F2-g2.chk
 Charge =  0 Multiplicity = 1

 SCF Done:  E(RHF) =  -276.921403036     A.U. after    1 cycles

  Exact polarizability:  22.001   0.030  21.750   0.000   0.000  21.803
 Approx polarizability:  18.076  -0.739  18.560   0.000   0.000  19.083

                     1                      2                      3
                     A                      A                      B
 Frequencies --   150.4814               347.7924               541.4135
 Red. masses --     4.7163                 2.6370                 2.4389
 Frc consts  --     0.0629                 0.1879                 0.4212
 IR Inten    --     4.4080                 0.2820                20.7332
 Raman Activ --     0.0160                 0.1876                 0.4484

                     4                      5                      6
                     A                      B                      B
 Frequencies --   956.0523              1001.7941              1210.9253
 Red. masses --     2.5390                 1.9788                 3.6837
 Frc consts  --     1.3673                 1.1701                 3.1825
 IR Inten    --    31.2863                51.5563                48.0093
 Raman Activ --     7.5431                 3.5975                 3.7853

                     7                      8                      9
                     A                      A                      B
 Frequencies --  1230.2608              1250.5891              1382.7730
 Red. masses --     2.9747                 2.1833                 1.1093
 Frc consts  --     2.6527                 2.0118                 1.2497
 IR Inten    --    84.9641                23.6976                 7.5496
 Raman Activ --     6.0205                 1.5702                 5.5702

                    10                     11                     12
                     A                      B                      A
 Frequencies --  1424.3834              1562.5655              1606.4313
 Red. masses --     1.0710                 1.2752                 1.5307
 Frc consts  --     1.2802                 1.8345                 2.3274
 IR Inten    --     2.8626                21.6494                26.1746
 Raman Activ --    19.3647                 1.0889                 2.5942

                    13                     14                     15
                     B                      A                      B
 Frequencies --  1658.2342              1662.2623              3242.5216
 Red. masses --     1.0943                 1.1111                 1.0590
 Frc consts  --     1.7728                 1.8089                 6.5602
 IR Inten    --     4.0396                 0.0688                21.6938
 Raman Activ --    14.2856                 2.8776                42.2032

                    16                     17                     18
                     A                      A                      B
 Frequencies --  3257.6805              3299.3317              3313.1381
 Red. masses --     1.0601                 1.1102                 1.1083
 Frc consts  --     6.6286                 7.1202                 7.1681
 IR Inten    --    43.4833                28.6420                69.5360
 Raman Activ --   160.4224                97.4478                12.5465

 - Thermochemistry -
 -------------------
 Temperature   298.150 Kelvin.  Pressure   1.00000 Atm.
 Atom  1 has atomic number  6 and mass  12.00000

 Molecular mass:    66.02811 amu.
 Principal axes and moments of inertia in atomic units:
                           1         2         3
     EIGENVALUES --   103.02932 348.81396 400.64043
           X            0.52895   0.00000   0.84866
           Y            0.84866   0.00000  -0.52895
           Z            0.00000   1.00000   0.00000
 This molecule is an asymmetric top.
 Rotational symmetry number  2.
 Rotational temperatures (Kelvin)      0.84067     0.24831     0.21619
 Rotational constants (GHZ):          17.51677     5.17394     4.50464
 Zero-point vibrational energy     174048.5 (Joules/Mol)
                                   41.59858 (Kcal/Mol)
 Warning -- explicit consideration of   3 degrees of freedom as
           vibrations may cause significant error
 Vibrational temperatures:    216.51   500.40   778.97  1375.54  1441.36
          (Kelvin)           1742.25  1770.07  1799.32  1989.50  2049.37
                             2248.18  2311.29  2385.83  2391.62  4665.26
                             4687.07  4747.00  4766.86

 Zero-point correction=                           0.066292 (Hartree/Particle)
 Thermal correction to Energy=                    0.070477
 Thermal correction to Enthalpy=                  0.071421
 Thermal correction to Gibbs Free Energy=         0.040031
 Sum of electronic and zero-point Energies=           -276.855111
 Sum of electronic and thermal Energies=              -276.850926
 Sum of electronic and thermal Enthalpies=            -276.849982
 Sum of electronic and thermal Free Energies=         -276.881372

                     E (Thermal)             CV                S
                      KCal/Mol        Cal/Mol-Kelvin    Cal/Mol-Kelvin
 Total                   44.225             12.369             66.066
 Electronic               0.000              0.000              0.000
 Translational            0.889              2.981             38.481
 Rotational               0.889              2.981             22.803
 Vibrational             42.448              6.407              4.783
 Vibration  1             0.618              1.902              2.666
 Vibration  2             0.725              1.580              1.176
 Vibration  3             0.896              1.159              0.562

 Optimization completed.
    -- Stationary point found.
 Normal termination of Gaussian 03 at Thu Oct 18 11:33:17 2007.

 ------------------------------------------------------------------
 #N Geom=AllCheck Guess=Read SCRF=Check MP2(Full)/6-31G(d) Opt=RCFC
 ------------------------------------------------------------------

 C2H4F2 Scan
 -----------
 Redundant internal coordinates taken from checkpoint file:
 g-C2H4F2-g2.chk
 Charge =  0 Multiplicity = 1

 SCF Done:  E(RHF) =  -276.921403036     A.U. after    1 cycles
 E2 =    -0.6094986225D+00 EUMP2 =    -0.27753090165889D+03
 SCF Done:  E(RHF) =  -276.920116845     A.U. after   10 cycles
 E2 =    -0.6121907351D+00 EUMP2 =    -0.27753230757983D+03
 SCF Done:  E(RHF) =  -276.919915687     A.U. after    8 cycles
 E2 =    -0.6123988849D+00 EUMP2 =    -0.27753231457194D+03
 Optimization completed.
    -- Stationary point found.
 Normal termination of Gaussian 03 at Thu Oct 18 11:33:48 2007.

 ---------------------------------------------------------------
 #N Geom=AllCheck Guess=Read SCRF=Check QCISD(T,E4T)/6-311G(d,p)
 ---------------------------------------------------------------

 C2H4F2 Scan
 -----------
 Redundant internal coordinates taken from checkpoint file:
 g-C2H4F2-g2.chk
 Charge =  0 Multiplicity = 1

 SCF Done:  E(RHF) =  -277.001748039     A.U. after   10 cycles
 Normal termination of Gaussian 03 at Thu Oct 18 11:38:33 2007.

 -------------------------------------------------------
 #N Geom=AllCheck Guess=Read SCRF=Check MP4/6-311+G(d,p)
 -------------------------------------------------------

 C2H4F2 Scan
 -----------
 Redundant internal coordinates taken from checkpoint file:
 g-C2H4F2-g2.chk
 Charge =  0 Multiplicity = 1

 SCF Done:  E(RHF) =  -277.010312180     A.U. after   10 cycles
 Normal termination of Gaussian 03 at Thu Oct 18 11:41:57 2007.

 --------------------------------------------------------
 #N Geom=AllCheck Guess=Read SCRF=Check MP4/6-311G(2df,p)
 --------------------------------------------------------

 C2H4F2 Scan
 -----------
 Redundant internal coordinates taken from checkpoint file:
 g-C2H4F2-g2.chk
 Charge =  0 Multiplicity = 1

 SCF Done:  E(RHF) =  -277.015462822     A.U. after   10 cycles
 Normal termination of Gaussian 03 at Thu Oct 18 11:52:15 2007.

                         Standard orientation:
 ---------------------------------------------------------------------
 Center     Atomic     Atomic              Coordinates (Angstroms)
 Number     Number      Type              X           Y           Z
 ---------------------------------------------------------------------
    1          6             0       -0.636200   -0.398016    0.523830
    2          6             0        0.636200    0.398016    0.523830
    3          9             0        0.636200    1.274076   -0.557956
    4          1             0        0.719135    0.981992    1.446461
    5          1             0        1.499269   -0.266472    0.432159
    6          9             0       -0.636200   -1.274076   -0.557956
    7          1             0       -0.719135   -0.981992    1.446461
    8          1             0       -1.499269    0.266472    0.432159
 ---------------------------------------------------------------------

 SCF Done:  E(RHF) =  -277.029319050     A.U. after   10 cycles
 E2 =    -0.8443312089D+00 EUMP2 =    -0.27787365025871D+03

 The electronic state is 1-A.
 Alpha  occ. eigenvalues --  -26.28745 -26.28745 -11.32401 -11.32330  -1.60084
 Alpha  occ. eigenvalues --   -1.58899  -1.05112  -0.88173  -0.73399  -0.73392
 Alpha  occ. eigenvalues --   -0.70379  -0.67623  -0.66932  -0.62404  -0.54802
 Alpha  occ. eigenvalues --   -0.53321  -0.51568
 Alpha virt. eigenvalues --    0.06399   0.08203   0.09321   0.09927   0.12219
 Alpha virt. eigenvalues --    0.12415   0.13700   0.18684   0.25199   0.25347
 Alpha virt. eigenvalues --    0.27449   0.27585   0.29789   0.32677   0.35704

 Mulliken atomic charges:
              1
     1  C    0.300772
     2  C    0.300772
     3  F   -0.562209
     4  H    0.129148
     5  H    0.132290
     6  F   -0.562209
     7  H    0.129148
     8  H    0.132290
 Sum of Mulliken charges=   0.00000

 Dipole moment (field-independent basis, Debye):
    X=     0.0000    Y=     0.0000    Z=     3.1821  Tot=     3.1821
 Quadrupole moment (field-independent basis, Debye-Ang):
   XX=   -21.5083   YY=   -26.4905   ZZ=   -22.3872
   XY=    -1.8543   XZ=     0.0000   YZ=     0.0000

 Normal termination of Gaussian 03 at Thu Oct 18 11:54:20 2007.
