 Gaussian 03, Revision D.01,
 Gaussian 03:  AM64L-G03RevD.01 13-Oct-2005

 ----------------
 #P MP2/3-21G opt
 ----------------

 -------------------------
 C2H4F2 trans optimization
 -------------------------
 Symbolic Z-matrix:
 Charge =  0 Multiplicity = 1

 SCF Done:  E(RHF) =  -275.415489585     A.U. after   10 cycles
 E2 =    -0.4127797428D+00 EUMP2 =    -0.27582826932822D+03
 SCF Done:  E(RHF) =  -275.417762533     A.U. after   12 cycles
 E2 =    -0.4132638826D+00 EUMP2 =    -0.27583102641534D+03
 SCF Done:  E(RHF) =  -275.418304188     A.U. after    9 cycles
 E2 =    -0.4129988789D+00 EUMP2 =    -0.27583130306663D+03
 SCF Done:  E(RHF) =  -275.418066755     A.U. after   12 cycles
 E2 =    -0.4132576995D+00 EUMP2 =    -0.27583132445434D+03
 Optimization completed.
    -- Stationary point found.

                         Standard orientation:
 ---------------------------------------------------------------------
 Center     Atomic     Atomic              Coordinates (Angstroms)
 Number     Number      Type              X           Y           Z
 ---------------------------------------------------------------------
    1          6             0        0.437896    0.626352    0.000006
    2          6             0       -0.437896   -0.626352    0.000006
    3          9             0        0.437896   -1.756191   -0.000006
    4          1             0       -1.069414   -0.641217    0.890072
    5          1             0       -1.069423   -0.641202   -0.890055
    6          9             0       -0.437896    1.756191   -0.000006
    7          1             0        1.069414    0.641217    0.890072
    8          1             0        1.069423    0.641202   -0.890055
 ---------------------------------------------------------------------

 The electronic state is 1-A.
 Alpha  occ. eigenvalues --  -26.14238 -26.14227 -11.27173 -11.27134  -1.56568
 Alpha  occ. eigenvalues --   -1.55951  -1.04478  -0.87738  -0.72577  -0.68827
 Alpha  occ. eigenvalues --   -0.68257  -0.65966  -0.62170  -0.59948  -0.55412
 Alpha  occ. eigenvalues --   -0.50815  -0.50356
 Alpha virt. eigenvalues --    0.24974   0.26489   0.29938   0.31953   0.36102
 Alpha virt. eigenvalues --    0.41030   0.42350   0.89994   0.95216   0.95252
 Alpha virt. eigenvalues --    0.98673   0.99759   1.13114   1.21719   1.29419

 Mulliken atomic charges:
              1
     1  C   -0.054602
     2  C   -0.054602
     3  F   -0.397624
     4  H    0.226113
     5  H    0.226113
     6  F   -0.397624
     7  H    0.226113
     8  H    0.226113
 Sum of Mulliken charges=   0.00000

 Dipole moment (field-independent basis, Debye):
    X=     0.0000    Y=     0.0000    Z=     0.0000  Tot=     0.0000
 Quadrupole moment (field-independent basis, Debye-Ang):
   XX=   -21.5511   YY=   -31.0634   ZZ=   -21.2244
   XY=     3.6784   XZ=     0.0000   YZ=     0.0000

 Normal termination of Gaussian 03 at Tue Oct 16 12:30:46 2007.
