 Gaussian 03, Revision D.01,
 Gaussian 03:  AM64L-G03RevD.01 13-Oct-2005

 -----
 #N G2
 -----

 -----------
 t-C2H4F2 G2
 -----------
 Symbolic Z-matrix:
 Charge =  0 Multiplicity = 1

 SCF Done:  E(RHF) =  -276.916623421     A.U. after   11 cycles
 SCF Done:  E(RHF) =  -276.921878269     A.U. after   12 cycles
 SCF Done:  E(RHF) =  -276.922110156     A.U. after   12 cycles
 SCF Done:  E(RHF) =  -276.922120643     A.U. after   13 cycles
 Optimization completed.
    -- Stationary point found.
 Normal termination of Gaussian 03 at Thu Oct 18 10:56:35 2007.

 -------------------------------------------------------
 #N Geom=AllCheck Guess=Read SCRF=Check HF/6-31G(d) Freq
 -------------------------------------------------------

 t-C2H4F2 G2
 -----------
 Redundant internal coordinates taken from checkpoint file:
 t-C2H4F2-G2.chk
 Charge =  0 Multiplicity = 1

 SCF Done:  E(RHF) =  -276.922120643     A.U. after    1 cycles

  Exact polarizability:  22.102   0.335  21.275   0.000   0.000  21.729
 Approx polarizability:  18.812  -0.549  17.459   0.000   0.000  18.868

                     1                      2                      3
                     A                      B                      A
 Frequencies --   146.7111               306.1159               497.1025
 Red. masses --     3.4703                 4.7457                 9.5353
 Frc consts  --     0.0440                 0.2620                 1.3883
 IR Inten    --    15.8530                23.5351                 0.0000
 Raman Activ --     0.0000                 0.0000                 2.5911

                     4                      5                      6
                     A                      A                      A
 Frequencies --   882.4413              1169.6391              1191.0189
 Red. masses --     1.0834                 3.8316                 3.7412
 Frc consts  --     0.4971                 3.0884                 3.1268
 IR Inten    --     0.7067                 0.0000                 0.0000
 Raman Activ --     0.0000                 8.5595                11.3941

                     7                      8                      9
                     B                      B                      A
 Frequencies --  1194.4283              1296.1555              1355.9828
 Red. masses --     7.8066                 1.5401                 1.1329
 Frc consts  --     6.5619                 1.5245                 1.2273
 IR Inten    --   253.6732                 0.0000                 6.9232
 Raman Activ --     0.0000                 4.6849                 0.0000

                    10                     11                     12
                     B                      B                      A
 Frequencies --  1420.0087              1499.0747              1617.4230
 Red. masses --     1.1017                 1.2413                 1.4942
 Frc consts  --     1.3088                 1.6435                 2.3031
 IR Inten    --     0.0000                28.3046                 0.0000
 Raman Activ --    18.1627                 0.0000                 3.0308

                    13                     14                     15
                     A                      B                      A
 Frequencies --  1680.0841              1686.9956              3261.6812
 Red. masses --     1.1068                 1.0930                 1.0590
 Frc consts  --     1.8407                 1.8328                 6.6380
 IR Inten    --     0.0000                 3.2035                 0.0000
 Raman Activ --    19.1649                 0.0000               193.6694

                    16                     17                     18
                     B                      B                      A
 Frequencies --  3263.6112              3303.3217              3329.5214
 Red. masses --     1.0560                 1.1116                 1.1140
 Frc consts  --     6.6267                 7.1466                 7.2760
 IR Inten    --    72.7632                 0.0000                89.8680
 Raman Activ --     0.0000               123.7175                 0.0000

 - Thermochemistry -
 -------------------
 Temperature   298.150 Kelvin.  Pressure   1.00000 Atm.
 Atom  1 has atomic number  6 and mass  12.00000

 Molecular mass:    66.02811 amu.
 Principal axes and moments of inertia in atomic units:
                           1         2         3
     EIGENVALUES --    55.69569 456.02323 489.30302
           X           -0.16423   0.98642   0.00000
           Y            0.98642   0.16423   0.00000
           Z            0.00000   0.00000   1.00000
 This molecule is an asymmetric top.
 Rotational symmetry number  2.
 Rotational temperatures (Kelvin)      1.55513     0.18993     0.17701
 Rotational constants (GHZ):          32.40361     3.95756     3.68839
 Zero-point vibrational energy     174064.5 (Joules/Mol)
                                   41.60242 (Kcal/Mol)
 Warning -- explicit consideration of   3 degrees of freedom as
           vibrations may cause significant error
 Vibrational temperatures:    211.08   440.43   715.22  1269.63  1682.85
          (Kelvin)           1713.61  1718.51  1864.88  1950.95  2043.07
                             2156.83  2327.11  2417.26  2427.21  4692.83
                             4695.60  4752.74  4790.43

 Zero-point correction=                           0.066298 (Hartree/Particle)
 Thermal correction to Energy=                    0.070569
 Thermal correction to Enthalpy=                  0.071513
 Thermal correction to Gibbs Free Energy=         0.040022
 Sum of electronic and zero-point Energies=           -276.855823
 Sum of electronic and thermal Energies=              -276.851552
 Sum of electronic and thermal Enthalpies=            -276.850608
 Sum of electronic and thermal Free Energies=         -276.882098

                     E (Thermal)             CV                S
                      KCal/Mol        Cal/Mol-Kelvin    Cal/Mol-Kelvin
 Total                   44.283             12.530             66.278
 Electronic               0.000              0.000              0.000
 Translational            0.889              2.981             38.481
 Rotational               0.889              2.981             22.656
 Vibrational             42.505              6.568              5.141
 Vibration  1             0.617              1.906              2.714
 Vibration  2             0.697              1.662              1.383
 Vibration  3             0.853              1.256              0.665

 Optimization completed.
    -- Stationary point found.
 Normal termination of Gaussian 03 at Thu Oct 18 10:56:55 2007.

 ------------------------------------------------------------------
 #N Geom=AllCheck Guess=Read SCRF=Check MP2(Full)/6-31G(d) Opt=RCFC
 ------------------------------------------------------------------

 t-C2H4F2 G2
 -----------
 Redundant internal coordinates taken from checkpoint file:
 t-C2H4F2-G2.chk
 Charge =  0 Multiplicity = 1

 SCF Done:  E(RHF) =  -276.922120643     A.U. after    1 cycles
 E2 =    -0.6084804874D+00 EUMP2 =    -0.27753060113042D+03
 SCF Done:  E(RHF) =  -276.920836947     A.U. after   10 cycles
 E2 =    -0.6111302853D+00 EUMP2 =    -0.27753196723236D+03
 SCF Done:  E(RHF) =  -276.920645260     A.U. after   13 cycles
 E2 =    -0.6113283881D+00 EUMP2 =    -0.27753197364806D+03
 Optimization completed.
    -- Stationary point found.
 Normal termination of Gaussian 03 at Thu Oct 18 10:57:25 2007.

 ---------------------------------------------------------------
 #N Geom=AllCheck Guess=Read SCRF=Check QCISD(T,E4T)/6-311G(d,p)
 ---------------------------------------------------------------

 t-C2H4F2 G2
 -----------
 Redundant internal coordinates taken from checkpoint file:
 t-C2H4F2-G2.chk
 Charge =  0 Multiplicity = 1

 SCF Done:  E(RHF) =  -277.002031708     A.U. after   10 cycles
 Normal termination of Gaussian 03 at Thu Oct 18 11:02:03 2007.

 -------------------------------------------------------
 #N Geom=AllCheck Guess=Read SCRF=Check MP4/6-311+G(d,p)
 -------------------------------------------------------

 t-C2H4F2 G2
 -----------
 Redundant internal coordinates taken from checkpoint file:
 t-C2H4F2-G2.chk
 Charge =  0 Multiplicity = 1

 SCF Done:  E(RHF) =  -277.010055499     A.U. after    9 cycles
 Normal termination of Gaussian 03 at Thu Oct 18 11:05:27 2007.

 --------------------------------------------------------
 #N Geom=AllCheck Guess=Read SCRF=Check MP4/6-311G(2df,p)
 --------------------------------------------------------

 t-C2H4F2 G2
 -----------
 Redundant internal coordinates taken from checkpoint file:
 t-C2H4F2-G2.chk
 Charge =  0 Multiplicity = 1

 SCF Done:  E(RHF) =  -277.015249055     A.U. after    9 cycles
 Normal termination of Gaussian 03 at Thu Oct 18 11:15:27 2007.

                         Standard orientation:
 ---------------------------------------------------------------------
 Center     Atomic     Atomic              Coordinates (Angstroms)
 Number     Number      Type              X           Y           Z
 ---------------------------------------------------------------------
    1          6             0       -0.427917    0.622614    0.000005
    2          6             0        0.427917   -0.622614    0.000005
    3          9             0       -0.427917   -1.723904   -0.000005
    4          1             0        1.057712   -0.659844   -0.891761
    5          1             0        1.057702   -0.659852    0.891777
    6          9             0        0.427917    1.723904   -0.000005
    7          1             0       -1.057712    0.659844   -0.891761
    8          1             0       -1.057702    0.659852    0.891777
 ---------------------------------------------------------------------

 SCF Done:  E(RHF) =  -277.028740293     A.U. after   10 cycles
 E2 =    -0.8435362528D+00 EUMP2 =    -0.27787227654609D+03

 The electronic state is 1-A.
 Alpha  occ. eigenvalues --  -26.29490 -26.29489 -11.32374 -11.32307  -1.60381
 Alpha  occ. eigenvalues --   -1.59816  -1.04650  -0.88606  -0.74032  -0.72686
 Alpha  occ. eigenvalues --   -0.71302  -0.68877  -0.66370  -0.62952  -0.57044
 Alpha  occ. eigenvalues --   -0.51765  -0.51452
 Alpha virt. eigenvalues --    0.07389   0.08182   0.09014   0.09314   0.12376
 Alpha virt. eigenvalues --    0.12780   0.13646   0.18654   0.25535   0.26325
 Alpha virt. eigenvalues --    0.26510   0.27048   0.29724   0.35394   0.36442

 Mulliken atomic charges:
              1
     1  C    0.297886
     2  C    0.297886
     3  F   -0.558289
     4  H    0.130202
     5  H    0.130202
     6  F   -0.558289
     7  H    0.130202
     8  H    0.130202
 Sum of Mulliken charges=   0.00000

 Dipole moment (field-independent basis, Debye):
    X=     0.0000    Y=     0.0000    Z=     0.0000  Tot=     0.0000
 Quadrupole moment (field-independent basis, Debye-Ang):
   XX=   -21.9551   YY=   -30.3247   ZZ=   -21.3073
   XY=    -3.6320   XZ=     0.0000   YZ=     0.0000

 Normal termination of Gaussian 03 at Thu Oct 18 11:17:35 2007.
