 Gaussian 03, Revision D.01,
 Gaussian 03:  AM64L-G03RevD.01 13-Oct-2005

 ---------------
 #P HF/3-21G opt
 ---------------

 -----------
 C2H4F2 Scan
 -----------
 Symbolic Z-matrix:
 Charge =  0 Multiplicity = 1

 SCF Done:  E(RHF) =  -275.415489585     A.U. after   10 cycles
 SCF Done:  E(RHF) =  -275.419750289     A.U. after   11 cycles
 SCF Done:  E(RHF) =  -275.419879384     A.U. after   13 cycles
 SCF Done:  E(RHF) =  -275.419888234     A.U. after   13 cycles
 Optimization completed.
    -- Stationary point found.

                         Standard orientation:
 ---------------------------------------------------------------------
 Center     Atomic     Atomic              Coordinates (Angstroms)
 Number     Number      Type              X           Y           Z
 ---------------------------------------------------------------------
    1          6             0       -0.724038   -0.221773    0.000007
    2          6             0        0.724038    0.221773    0.000007
    3          9             0        0.724038    1.626651   -0.000007
    4          1             0        1.229754   -0.139772    0.880128
    5          1             0        1.229759   -0.139778   -0.880108
    6          9             0       -0.724038   -1.626651   -0.000007
    7          1             0       -1.229754    0.139772    0.880128
    8          1             0       -1.229759    0.139778   -0.880108
 ---------------------------------------------------------------------

 The electronic state is 1-A.
 Alpha  occ. eigenvalues --  -26.14272 -26.14258 -11.26411 -11.26372  -1.57571
 Alpha  occ. eigenvalues --   -1.56890  -1.04737  -0.88214  -0.73429  -0.69631
 Alpha  occ. eigenvalues --   -0.69106  -0.66632  -0.62859  -0.60134  -0.55323
 Alpha  occ. eigenvalues --   -0.50744  -0.50231
 Alpha virt. eigenvalues --    0.25813   0.26927   0.30442   0.33002   0.36821
 Alpha virt. eigenvalues --    0.42670   0.43753   0.89660   0.94415   0.95777
 Alpha virt. eigenvalues --    0.98887   1.00617   1.13696   1.22933   1.30598

 Mulliken atomic charges:
              1
     1  C   -0.044417
     2  C   -0.044417
     3  F   -0.404821
     4  H    0.224618
     5  H    0.224619
     6  F   -0.404821
     7  H    0.224618
     8  H    0.224619
 Sum of Mulliken charges=   0.00000

 Dipole moment (field-independent basis, Debye):
    X=     0.0000    Y=     0.0000    Z=     0.0000  Tot=     0.0000
 Quadrupole moment (field-independent basis, Debye-Ang):
   XX=   -21.5042   YY=   -30.7325   ZZ=   -21.1954
   XY=    -3.5360   XZ=     0.0000   YZ=     0.0000

 Normal termination of Gaussian 03 at Wed Oct  3 22:57:35 2007.
