 Gaussian 03, Revision D.01,
 Gaussian 03:  AM64L-G03RevD.01 13-Oct-2005

 -----------------------
 #N G2=(StartMP2) opt=ts
 -----------------------

 C2H4F2 transition state search
 ------------------------------
 Redundant internal coordinates taken from checkpoint file:
 ts-C2H4F2-G2.chk
 Charge =  0 Multiplicity = 1

 ******    1 imaginary frequencies (negative Signs) ******

                     1                      2                      3
                     B                      B                      B
 Frequencies --   -75.4847               225.3951               431.0343
 Red. masses --     3.7530                 3.3971                 3.2355
 Frc consts  --     0.0126                 0.1017                 0.3542
 IR Inten    --     0.0000                 0.0000                 0.0000

                     4                      5                      6
                     B                      B                      B
 Frequencies --   531.6036               974.1473              1097.2058
 Red. masses --     1.8270                 1.7374                 2.6806
 Frc consts  --     0.3042                 0.9714                 1.9013
 IR Inten    --     0.0000                 0.0000                 0.0000

                     7                      8                      9
                     B                      B                      B
 Frequencies --  1156.4664              1238.1579              1355.4594
 Red. masses --     3.8434                 2.0663                 1.2077
 Frc consts  --     3.0285                 1.8664                 1.3073
 IR Inten    --     0.0000                 0.0000                 0.0000

                    10                     11                     12
                     B                      B                      B
 Frequencies --  1381.2680              1527.4083              1604.7015
 Red. masses --     1.0731                 1.2476                 1.4619
 Frc consts  --     1.2063                 1.7149                 2.2179
 IR Inten    --     0.0000                 0.0000                 0.0000

                    13                     14                     15
                     B                      B                      B
 Frequencies --  1657.7133              1661.7381              3107.8656
 Red. masses --     1.0923                 1.1177                 1.2483
 Frc consts  --     1.7685                 1.8185                 7.1041
 IR Inten    --     0.0000                 0.0000                 0.0000

                    16                     17                     18
                     B                      B                      B
 Frequencies --  3255.3594              3306.6157              3321.7427
 Red. masses --     1.0644                 1.1231                 1.1134
 Frc consts  --     6.6458                 7.2347                 7.2384
 IR Inten    --     0.0000                 0.0000                 0.0000

 - Thermochemistry -
 -------------------
 Temperature   298.150 Kelvin.  Pressure   1.00000 Atm.
 Atom  1 has atomic number  6 and mass  12.00000

 Molecular mass:    66.02811 amu.
 Principal axes and moments of inertia in atomic units:
                           1         2         3
     EIGENVALUES --    73.71683 455.03246 460.28757
           X            0.49312   0.86996   0.00000
           Y            0.86996  -0.49312   0.00000
           Z            0.00000   0.00000   1.00000
 This molecule is an asymmetric top.
 Rotational symmetry number  2.
 Rotational temperatures (Kelvin)      1.17495     0.19035     0.18817
 Rotational constants (GHZ):          24.48208     3.96618     3.92090
    1 imaginary frequencies ignored.
 Zero-point vibrational energy     166483.6 (Joules/Mol)
                                   39.79053 (Kcal/Mol)
 Warning -- explicit consideration of   3 degrees of freedom as
           vibrations may cause significant error
 Vibrational temperatures:    324.29   620.16   764.86  1401.58  1578.63
          (Kelvin)           1663.90  1781.43  1950.20  1987.33  2197.60
                             2308.80  2385.08  2390.87  4471.52  4683.73
                             4757.48  4779.24

 Zero-point correction=                           0.063410 (Hartree/Particle)
 Thermal correction to Energy=                    0.067377
 Thermal correction to Enthalpy=                  0.068321
 Thermal correction to Gibbs Free Energy=         0.037423
 Sum of electronic and zero-point Energies=           -277.463370
 Sum of electronic and thermal Energies=              -277.459403
 Sum of electronic and thermal Enthalpies=            -277.458459
 Sum of electronic and thermal Free Energies=         -277.489357

                     E (Thermal)             CV                S
                      KCal/Mol        Cal/Mol-Kelvin    Cal/Mol-Kelvin
 Total                   42.280             11.892             65.030
 Electronic               0.000              0.000              0.000
 Translational            0.889              2.981             38.481
 Rotational               0.889              2.981             22.872
 Vibrational             40.502              5.931              3.677
 Vibration  1             0.650              1.802              1.915
 Vibration  2             0.792              1.403              0.855
 Vibration  3             0.887              1.180              0.584

 Normal termination of Gaussian 03 at Thu Oct 18 12:04:42 2007.

 ------------------------------------------------------------------
 #N Geom=AllCheck Guess=Read SCRF=Check MP2(Full)/6-31G(d) Opt=RCFC
 ------------------------------------------------------------------

 C2H4F2 transition state search
 ------------------------------
 Redundant internal coordinates taken from checkpoint file:
 ts-C2H4F2-G2.chk
 Charge =  0 Multiplicity = 1

 SCF Done:  E(RHF) =  -276.915574135     A.U. after    1 cycles
 E2 =    -0.6112060468D+00 EUMP2 =    -0.27752678018230D+03
 SCF Done:  E(RHF) =  -276.912986976     A.U. after   10 cycles
 E2 =    -0.6130047227D+00 EUMP2 =    -0.27752599169877D+03
 SCF Done:  E(RHF) =  -276.910453654     A.U. after   10 cycles
 E2 =    -0.6143979780D+00 EUMP2 =    -0.27752485163221D+03
 SCF Done:  E(RHF) =  -276.904824091     A.U. after   10 cycles
 E2 =    -0.6164508221D+00 EUMP2 =    -0.27752127491309D+03
 SCF Done:  E(RHF) =  -276.916199464     A.U. after   10 cycles
 E2 =    -0.6077491350D+00 EUMP2 =    -0.27752394859870D+03
 SCF Done:  E(RHF) =  -276.908983192     A.U. after   11 cycles
 E2 =    -0.6149912974D+00 EUMP2 =    -0.27752397448982D+03
 SCF Done:  E(RHF) =  -276.893217641     A.U. after   11 cycles
 E2 =    -0.6200102293D+00 EUMP2 =    -0.27751322787073D+03
 SCF Done:  E(RHF) =  -276.882673576     A.U. after   10 cycles
 E2 =    -0.6224680484D+00 EUMP2 =    -0.27750514162476D+03
 SCF Done:  E(RHF) =  -276.913993917     A.U. after   11 cycles
 E2 =    -0.6122110298D+00 EUMP2 =    -0.27752620494679D+03
 SCF Done:  E(RHF) =  -276.906729661     A.U. after   10 cycles
 E2 =    -0.6156643486D+00 EUMP2 =    -0.27752239400988D+03
 Optimization stopped.
                           ! Non-Optimized Parameters !

                         Standard orientation:
 ---------------------------------------------------------------------
 Center     Atomic     Atomic              Coordinates (Angstroms)
 Number     Number      Type              X           Y           Z
 ---------------------------------------------------------------------
    1          6             0       -0.700264   -0.298391    0.287951
    2          6             0        0.700264    0.298391    0.287951
    3          9             0        0.700264    1.595230   -0.312197
    4          1             0        1.057950    0.403173    1.318349
    5          1             0        1.408624   -0.395652   -0.236285
    6          9             0       -0.700264   -1.595230   -0.312197
    7          1             0       -1.057950   -0.403173    1.318349
    8          1             0       -1.408624    0.395652   -0.236285
 ---------------------------------------------------------------------

 The electronic state is 1-A.
 Alpha  occ. eigenvalues --  -26.28401 -26.28401 -11.33150 -11.33088  -1.57626
 Alpha  occ. eigenvalues --   -1.57082  -1.04272  -0.87313  -0.71819  -0.70768
 Alpha  occ. eigenvalues --   -0.68541  -0.66417  -0.64927  -0.61261  -0.55004
 Alpha  occ. eigenvalues --   -0.51498  -0.51222
 Alpha virt. eigenvalues --    0.22893   0.22909   0.26875   0.29272   0.34765
 Alpha virt. eigenvalues --    0.37110   0.41310   0.71760   0.75564   0.75662
 Alpha virt. eigenvalues --    0.82397   0.84760   0.92444   1.05202   1.06622

 Mulliken atomic charges:
              1
     1  C    0.057275
     2  C    0.057275
     3  F   -0.425323
     4  H    0.173749
     5  H    0.194300
     6  F   -0.425323
     7  H    0.173749
     8  H    0.194300
 Sum of Mulliken charges=   0.00000

 Dipole moment (field-independent basis, Debye):
    X=     0.0000    Y=     0.0000    Z=     1.7955  Tot=     1.7955
 Quadrupole moment (field-independent basis, Debye-Ang):
   XX=   -21.4506   YY=   -29.3444   ZZ=   -21.5746
   XY=    -3.1404   XZ=     0.0000   YZ=     0.0000

 Error termination request processed by link 9999.
 Error termination via Lnk1e in /opt/und/gaussian/03D01/linux86-64/g03/l9999.exe at Thu Oct 18 12:06:26 2007.
