 Gaussian 03, Revision D.01,
 Gaussian 03:  AM64L-G03RevD.01 13-Oct-2005

 ------------------------------
 #N G2 opt=(ts,calcfc,z-matrix)
 ------------------------------

 ------------------------------
 C2H4F2 transition state search
 ------------------------------
 Symbolic Z-matrix:
 Charge =  0 Multiplicity = 1

 SCF Done:  E(RHF) =  -276.913164161     A.U. after   12 cycles
 SCF Done:  E(RHF) =  -276.916817981     A.U. after   12 cycles
 SCF Done:  E(RHF) =  -276.916854360     A.U. after   12 cycles
 SCF Done:  E(RHF) =  -276.916855469     A.U. after   12 cycles
 Optimization completed.
    -- Stationary point found.
 Normal termination of Gaussian 03 at Mon Oct 29 19:19:32 2007.

 -------------------------------------------------------
 #N Geom=AllCheck Guess=Read SCRF=Check HF/6-31G(d) Freq
 -------------------------------------------------------

 C2H4F2 transition state search
 ------------------------------
 Z-Matrix taken from the checkpoint file:
 ts-C2H4F2-G2.chk
 Charge =  0 Multiplicity = 1

 SCF Done:  E(RHF) =  -276.916855469     A.U. after    1 cycles

  Exact polarizability:  21.672  -0.302  21.609   0.001   0.000  21.467
 Approx polarizability:  17.654   0.667  18.435   0.000   0.000  18.687

 ******    1 imaginary frequencies (negative Signs) ******

                     1                      2                      3
                     A                      A                      A
 Frequencies --  -150.2166               437.8472               447.5958
 Red. masses --     2.9681                 3.1687                 4.8871
 Frc consts  --     0.0395                 0.3579                 0.5769
 IR Inten    --    11.2944                20.8178                 0.2338
 Raman Activ --     0.0188                 0.0734                 1.1651

                     4                      5                      6
                     A                      A                      A
 Frequencies --   916.4765              1131.8493              1141.7254
 Red. masses --     1.6531                 3.6634                 2.8703
 Frc consts  --     0.8181                 2.7651                 2.2045
 IR Inten    --    14.5981               154.3953                 0.1645
 Raman Activ --     4.8528                 3.5214                 9.1208

                     7                      8                      9
                     A                      A                      A
 Frequencies --  1214.9643              1248.5385              1385.8870
 Red. masses --     3.5993                 2.1694                 1.0599
 Frc consts  --     3.1304                 1.9925                 1.1994
 IR Inten    --    30.6375                41.6763                 5.1997
 Raman Activ --     6.9081                 2.5831                 7.7750

                    10                     11                     12
                     A                      A                      A
 Frequencies --  1399.8883              1529.9784              1606.3619
 Red. masses --     1.1071                 1.2374                 1.4229
 Frc consts  --     1.2782                 1.7066                 2.1633
 IR Inten    --     7.1492                25.6941                 5.4531
 Raman Activ --     9.3205                 2.8651                 2.4451

                    13                     14                     15
                     A                      A                      A
 Frequencies --  1660.0850              1668.1900              3257.5419
 Red. masses --     1.0970                 1.0930                 1.0604
 Frc consts  --     1.7812                 1.7920                 6.6300
 IR Inten    --     0.0041                 3.8664                36.8055
 Raman Activ --    10.3390                 8.3989                22.5038

                    16                     17                     18
                     A                      A                      A
 Frequencies --  3268.9402              3317.2702              3327.6420
 Red. masses --     1.0595                 1.1077                 1.1119
 Frc consts  --     6.6709                 7.1818                 7.2544
 IR Inten    --    19.6931                25.0030                59.0160
 Raman Activ --   162.0356                55.6353                47.5770

 - Thermochemistry -
 -------------------
 Temperature   298.150 Kelvin.  Pressure   1.00000 Atm.
 Atom  1 has atomic number  6 and mass  12.00000

 Molecular mass:    66.02811 amu.
 Principal axes and moments of inertia in atomic units:
                           1         2         3
     EIGENVALUES --    72.84039 445.76031 449.87278
           X            0.99959  -0.02868   0.00001
           Y            0.02868   0.99959  -0.00011
           Z            0.00000   0.00011   1.00000
 This molecule is an asymmetric top.
 Rotational symmetry number  1.
 Rotational temperatures (Kelvin)      1.18909     0.19431     0.19253
 Rotational constants (GHZ):          24.77665     4.04868     4.01167
    1 imaginary frequencies ignored.
 Zero-point vibrational energy     173223.9 (Joules/Mol)
                                   41.40152 (Kcal/Mol)
 Warning -- explicit consideration of   2 degrees of freedom as
           vibrations may cause significant error
 Vibrational temperatures:    629.96   643.99  1318.60  1628.48  1642.69
          (Kelvin)           1748.06  1796.37  1993.98  2014.12  2201.29
                             2311.19  2388.49  2400.15  4686.87  4703.27
                             4772.81  4787.73

 Zero-point correction=                           0.065978 (Hartree/Particle)
 Thermal correction to Energy=                    0.069501
 Thermal correction to Enthalpy=                  0.070446
 Thermal correction to Gibbs Free Energy=         0.039710
 Sum of electronic and zero-point Energies=           -276.850878
 Sum of electronic and thermal Energies=              -276.847354
 Sum of electronic and thermal Enthalpies=            -276.846410
 Sum of electronic and thermal Free Energies=         -276.877146

                     E (Thermal)             CV                S
                      KCal/Mol        Cal/Mol-Kelvin    Cal/Mol-Kelvin
 Total                   43.613             10.483             64.689
 Electronic               0.000              0.000              0.000
 Translational            0.889              2.981             38.481
 Rotational               0.889              2.981             24.194
 Vibrational             41.835              4.522              2.014
 Vibration  1             0.798              1.388              0.833
 Vibration  2             0.807              1.366              0.803

 Optimization completed.
    -- Stationary point found.
 Normal termination of Gaussian 03 at Mon Oct 29 19:19:51 2007.

 ------------------------------------------------------------------
 #N Geom=AllCheck Guess=Read SCRF=Check MP2(Full)/6-31G(d) Opt=RCFC
 ------------------------------------------------------------------

 C2H4F2 transition state search
 ------------------------------
 Redundant internal coordinates taken from checkpoint file:
 ts-C2H4F2-G2.chk
 Charge =  0 Multiplicity = 1

 SCF Done:  E(RHF) =  -276.916855469     A.U. after    1 cycles
 E2 =    -0.6085223617D+00 EUMP2 =    -0.27752537783035D+03
 SCF Done:  E(RHF) =  -276.915578846     A.U. after   10 cycles
 E2 =    -0.6112009974D+00 EUMP2 =    -0.27752677984388D+03
 Optimization stopped.
                           ! Non-Optimized Parameters !

                         Standard orientation:
 ---------------------------------------------------------------------
 Center     Atomic     Atomic              Coordinates (Angstroms)
 Number     Number      Type              X           Y           Z
 ---------------------------------------------------------------------
    1          6             0        0.609470   -0.456076    0.303575
    2          6             0       -0.609463    0.456090    0.303561
    3          9             0       -1.676548   -0.188729   -0.319733
    4          1             0       -0.932588    0.722326    1.312187
    5          1             0       -0.371499    1.362577   -0.255994
    6          9             0        1.676544    0.188715   -0.319740
    7          1             0        0.932595   -0.722288    1.312206
    8          1             0        0.371493   -1.362575   -0.255956
 ---------------------------------------------------------------------

 The electronic state is 1-A.
 Alpha  occ. eigenvalues --  -26.28242 -26.28242 -11.32100 -11.32037  -1.58878
 Alpha  occ. eigenvalues --   -1.58218  -1.03901  -0.87979  -0.72827  -0.71719
 Alpha  occ. eigenvalues --   -0.69487  -0.67270  -0.65637  -0.61339  -0.54687
 Alpha  occ. eigenvalues --   -0.51434  -0.50737
 Alpha virt. eigenvalues --    0.23708   0.23796   0.28457   0.30643   0.35083
 Alpha virt. eigenvalues --    0.37827   0.41754   0.71645   0.76732   0.77085
 Alpha virt. eigenvalues --    0.82020   0.84129   0.95598   1.05183   1.07550

 Mulliken atomic charges:
              1
     1  C    0.060426
     2  C    0.060425
     3  F   -0.419892
     4  H    0.168205
     5  H    0.191259
     6  F   -0.419887
     7  H    0.168204
     8  H    0.191258
 Sum of Mulliken charges=   0.00000

 Dipole moment (field-independent basis, Debye):
    X=     0.0001    Y=     0.0001    Z=     1.7502  Tot=     1.7502
 Quadrupole moment (field-independent basis, Debye-Ang):
   XX=   -29.2527   YY=   -20.8610   ZZ=   -21.4915
   XY=    -1.8541   XZ=     0.0000   YZ=     0.0000

 Error termination request processed by link 9999.
 Error termination via Lnk1e in /opt/und/gaussian/03D01/linux86-64/g03/l9999.exe at Mon Oct 29 19:20:11 2007.
