 Gaussian 03, Revision D.01,
 Gaussian 03:  AM64L-G03RevD.01 13-Oct-2005

 --------------------------------------------------
 #P HF/6-31G(d) freq=analytic geom=check guess=Read
 --------------------------------------------------

 CH3OH frequency
 ---------------
 Redundant internal coordinates taken from checkpoint file:
 CH3OH-631g.chk
 Charge =  0 Multiplicity = 1

                         Standard orientation:
 ---------------------------------------------------------------------
 Center     Atomic     Atomic              Coordinates (Angstroms)
 Number     Number      Type              X           Y           Z
 ---------------------------------------------------------------------
    1          6             0        0.046177    0.654273    0.000000
    2          8             0        0.046177   -0.745512    0.000000
    3          1             0       -0.846236   -1.059604    0.000000
    4          1             0        1.078645    0.974420    0.000000
    5          1             0       -0.439447    1.061822    0.883623
    6          1             0       -0.439447    1.061822   -0.883623
 ---------------------------------------------------------------------

 SCF Done:  E(RHF) =  -115.035417987     A.U. after    1 cycles

 The electronic state is 1-A'.
 Alpha  occ. eigenvalues --  -20.55538 -11.26678  -1.36032  -0.92684  -0.69361
 Alpha  occ. eigenvalues --   -0.62085  -0.59538  -0.49742  -0.44329
 Alpha virt. eigenvalues --    0.22683   0.28037   0.32382   0.33049   0.38749
 Alpha virt. eigenvalues --    0.76243   0.77447   0.79840   1.05540   1.12999
 Alpha virt. eigenvalues --    1.15178   1.18944   1.21799   1.25369   1.27050

 Mulliken atomic charges:
              1
     1  C   -0.166628
     2  O   -0.726105
     3  H    0.437222
     4  H    0.174463
     5  H    0.140524
     6  H    0.140524
 Sum of Mulliken charges=   0.00000

 Dipole moment (field-independent basis, Debye):
    X=    -1.5404    Y=     1.0566    Z=     0.0000  Tot=     1.8679
 Quadrupole moment (field-independent basis, Debye-Ang):
   XX=   -11.5878   YY=   -13.0391   ZZ=   -13.6325
   XY=     2.2475   XZ=     0.0000   YZ=     0.0000

  Exact polarizability:  15.262   0.994  15.402   0.000   0.000  13.492
 Approx polarizability:  12.740   0.522  12.024   0.000   0.000  11.033

                     1                      2                      3
                    A"                     A'                     A'
 Frequencies --   343.8087              1163.5200              1187.9406
 Red. masses --     1.0714                 1.1053                 5.6565
 Frc consts  --     0.0746                 0.8816                 4.7031
 IR Inten    --   147.6662                71.7402                75.2949
 Raman Activ --     2.9649                 1.5458                 9.0133

                     4                      5                      6
                    A"                     A'                     A'
 Frequencies --  1289.8156              1507.4010              1637.5638
 Red. masses --     1.2658                 1.2949                 1.1575
 Frc consts  --     1.2407                 1.7336                 1.8287
 IR Inten    --     3.4777                44.1725                11.0793
 Raman Activ --     6.6967                 3.7522                 6.8159

                     7                      8                      9
                    A"                     A'                     A'
 Frequencies --  1651.6871              1663.4846              3184.4149
 Red. masses --     1.0499                 1.0517                 1.0370
 Frc consts  --     1.6876                 1.7147                 6.1959
 IR Inten    --     1.0443                 3.1720                63.0135
 Raman Activ --    19.9018                18.3310               121.8406

                    10                     11                     12
                    A"                     A'                     A'
 Frequencies --  3230.3085              3306.3755              4120.7272
 Red. masses --     1.1064                 1.0988                 1.0670
 Frc consts  --     6.8020                 7.0776                10.6744
 IR Inten    --   100.1907                48.8802                40.8306
 Raman Activ --    67.4591                74.6340                70.3397

 - Thermochemistry -
 -------------------
 Temperature   298.150 Kelvin.  Pressure   1.00000 Atm.
 Atom  1 has atomic number  6 and mass  12.00000

 Molecular mass:    32.02621 amu.
 Principal axes and moments of inertia in atomic units:
                           1         2         3
     EIGENVALUES --    13.77114  71.00046  73.53132
           X            0.05467   0.99850   0.00000
           Y            0.99850  -0.05467   0.00000
           Z            0.00000   0.00000   1.00000
 This molecule is an asymmetric top.
 Rotational symmetry number  1.
 Rotational temperatures (Kelvin)      6.28952     1.21991     1.17792
 Rotational constants (GHZ):         131.05246    25.41873    24.54384
 Zero-point vibrational energy     145268.8 (Joules/Mol)
                                   34.72008 (Kcal/Mol)
 Warning -- explicit consideration of   1 degrees of freedom as
           vibrations may cause significant error
 Vibrational temperatures:    494.66  1674.04  1709.18  1855.75  2168.81
          (Kelvin)           2356.09  2376.41  2393.38  4581.66  4647.69
                             4757.13  5928.80

 Zero-point correction=                           0.055330 (Hartree/Particle)
 Thermal correction to Energy=                    0.058592
 Thermal correction to Enthalpy=                  0.059536
 Thermal correction to Gibbs Free Energy=         0.032652
 Sum of electronic and zero-point Energies=           -114.980088
 Sum of electronic and thermal Energies=              -114.976826
 Sum of electronic and thermal Enthalpies=            -114.975882
 Sum of electronic and thermal Free Energies=         -115.002766

                     E (Thermal)             CV                S
                      KCal/Mol        Cal/Mol-Kelvin    Cal/Mol-Kelvin
 Total                   36.767              8.350             56.583
 Electronic               0.000              0.000              0.000
 Translational            0.889              2.981             36.324
 Rotational               0.889              2.981             18.914
 Vibrational             34.990              2.388              1.344
 Vibration  1             0.723              1.588              1.194

 Optimization completed.
    -- Stationary point found.
 Normal termination of Gaussian 03 at Sun Oct  7 17:09:37 2007.
