 Gaussian 03, Revision D.01,
 Gaussian 03:  AM64L-G03RevD.01 13-Oct-2005

 ------------------
 #P HF/6-31G(d) opt
 ------------------

 ------------------
 CH3OH optimization
 ------------------
 Symbolic Z-matrix:
 Charge =  0 Multiplicity = 1

 SCF Done:  E(RHF) =  -114.825998307     A.U. after   12 cycles
 SCF Done:  E(RHF) =  -114.876895538     A.U. after   13 cycles
 SCF Done:  E(RHF) =  -114.917974711     A.U. after   12 cycles
 SCF Done:  E(RHF) =  -114.965485268     A.U. after   12 cycles
 SCF Done:  E(RHF) =  -115.021060989     A.U. after   12 cycles
 SCF Done:  E(RHF) =  -115.034936053     A.U. after   11 cycles
 SCF Done:  E(RHF) =  -115.035259180     A.U. after   10 cycles
 SCF Done:  E(RHF) =  -115.035417987     A.U. after    9 cycles
 Optimization completed.
    -- Stationary point found.

                         Standard orientation:
 ---------------------------------------------------------------------
 Center     Atomic     Atomic              Coordinates (Angstroms)
 Number     Number      Type              X           Y           Z
 ---------------------------------------------------------------------
    1          6             0        0.046177    0.654273    0.000000
    2          8             0        0.046177   -0.745512    0.000000
    3          1             0       -0.846236   -1.059604    0.000000
    4          1             0        1.078645    0.974420    0.000000
    5          1             0       -0.439447    1.061822    0.883623
    6          1             0       -0.439447    1.061822   -0.883623
 ---------------------------------------------------------------------

 The electronic state is 1-A'.
 Alpha  occ. eigenvalues --  -20.55538 -11.26678  -1.36032  -0.92684  -0.69361
 Alpha  occ. eigenvalues --   -0.62085  -0.59538  -0.49742  -0.44329
 Alpha virt. eigenvalues --    0.22683   0.28037   0.32382   0.33049   0.38749
 Alpha virt. eigenvalues --    0.76243   0.77447   0.79840   1.05540   1.12999
 Alpha virt. eigenvalues --    1.15178   1.18944   1.21799   1.25369   1.27050

 Mulliken atomic charges:
              1
     1  C   -0.166628
     2  O   -0.726105
     3  H    0.437222
     4  H    0.174463
     5  H    0.140524
     6  H    0.140524
 Sum of Mulliken charges=   0.00000

 Dipole moment (field-independent basis, Debye):
    X=    -1.5404    Y=     1.0566    Z=     0.0000  Tot=     1.8679
 Quadrupole moment (field-independent basis, Debye-Ang):
   XX=   -11.5878   YY=   -13.0391   ZZ=   -13.6325
   XY=     2.2475   XZ=     0.0000   YZ=     0.0000

 Normal termination of Gaussian 03 at Sun Oct  7 17:06:11 2007.
