 Gaussian 03, Revision D.01,
 Gaussian 03:  AM64L-G03RevD.01 13-Oct-2005

 ---------------------
 #N B3LYP/6-31G(d) opt
 ---------------------

 -----------
 e-C2H4F2 G2
 -----------
 Symbolic Z-matrix:
 Charge =  0 Multiplicity = 1

 SCF Done:  E(RB+HF-LYP) =  -278.265375350     A.U. after   12 cycles
 SCF Done:  E(RB+HF-LYP) =  -278.266697152     A.U. after   11 cycles
 SCF Done:  E(RB+HF-LYP) =  -278.266835875     A.U. after    9 cycles
 SCF Done:  E(RB+HF-LYP) =  -278.266841696     A.U. after    7 cycles
 Optimization completed.
    -- Stationary point found.

                         Standard orientation:
 ---------------------------------------------------------------------
 Center     Atomic     Atomic              Coordinates (Angstroms)
 Number     Number      Type              X           Y           Z
 ---------------------------------------------------------------------
    1          6             0        0.000000    0.776192    0.626730
    2          6             0        0.000000   -0.776192    0.626730
    3          9             0        0.000000   -1.249128   -0.670525
    4          1             0        0.888768   -1.166966    1.137174
    5          1             0       -0.888768   -1.166966    1.137174
    6          9             0        0.000000    1.249128   -0.670525
    7          1             0       -0.888768    1.166966    1.137174
    8          1             0        0.888768    1.166966    1.137174
 ---------------------------------------------------------------------

 The electronic state is 1-A1.
 Alpha  occ. eigenvalues --  -24.67494 -24.67494 -10.26889 -10.26871  -1.19207
 Alpha  occ. eigenvalues --   -1.17447  -0.76022  -0.63581  -0.51673  -0.51146
 Alpha  occ. eigenvalues --   -0.48776  -0.46156  -0.45221  -0.37164  -0.35484
 Alpha  occ. eigenvalues --   -0.32504  -0.31945
 Alpha virt. eigenvalues --    0.06066   0.10215   0.11225   0.14672   0.20881
 Alpha virt. eigenvalues --    0.21250   0.24281   0.50598   0.53353   0.55359
 Alpha virt. eigenvalues --    0.55799   0.58977   0.77261   0.78050   0.80928

 Mulliken atomic charges:
              1
     1  C    0.020885
     2  C    0.020885
     3  F   -0.298612
     4  H    0.138864
     5  H    0.138864
     6  F   -0.298612
     7  H    0.138864
     8  H    0.138864
 Sum of Mulliken charges=   0.00000

 Dipole moment (field-independent basis, Debye):
    X=     0.0000    Y=     0.0000    Z=     2.8962  Tot=     2.8962
 Quadrupole moment (field-independent basis, Debye-Ang):
   XX=   -21.4592   YY=   -24.1019   ZZ=   -21.9802
   XY=     0.0000   XZ=     0.0000   YZ=     0.0000

 1\1\GINC-DCOPT241\FOpt\RB3LYP\6-31G(d)\C2H4F2\WSCHNEI1\29-Oct-2007\0\\
 #N B3LYP/6-31G(d) opt\\e-C2H4F2 G2\\0,1\C,-0.0022029056,0.,-0.00689248
 57\C,-0.0022029056,0.,1.5454924857\F,1.2950527092,0.,2.0184283805\H,-0
 .512646815,0.888767819,1.9362662086\H,-0.512646815,-0.888767819,1.9362
 662086\F,1.2950527092,0.,-0.4798283805\H,-0.512646815,-0.888767819,-0.
 3976662086\H,-0.512646815,0.888767819,-0.3976662086\\Version=AM64L-G03
 RevD.01\State=1-A1\HF=-278.2668417\RMSD=3.860e-09\RMSF=1.401e-04\Therm
 al=0.\Dipole=-1.1394514,0.,0.\PG=C02V [SGV(C2F2),X(H4)]\\@

 Normal termination of Gaussian 03 at Mon Oct 29 18:57:06 2007.
