 Gaussian 03, Revision D.01,
 Gaussian 03:  AM64L-G03RevD.01 13-Oct-2005

 ---------------------
 #N B3LYP/6-31G(d) opt
 ---------------------

 -----------
 C2H4F2 Scan
 -----------
 Symbolic Z-matrix:
 Charge =  0 Multiplicity = 1

 SCF Done:  E(RB+HF-LYP) =  -278.276706695     A.U. after   12 cycles
 SCF Done:  E(RB+HF-LYP) =  -278.278462053     A.U. after   13 cycles
 SCF Done:  E(RB+HF-LYP) =  -278.278595789     A.U. after   11 cycles
 SCF Done:  E(RB+HF-LYP) =  -278.278599298     A.U. after    7 cycles
 Optimization completed.
    -- Stationary point found.

                         Standard orientation:
 ---------------------------------------------------------------------
 Center     Atomic     Atomic              Coordinates (Angstroms)
 Number     Number      Type              X           Y           Z
 ---------------------------------------------------------------------
    1          6             0       -0.633675   -0.410104    0.514419
    2          6             0        0.633675    0.410104    0.514419
    3          9             0        0.633675    1.297176   -0.551308
    4          1             0        0.706393    0.981144    1.449632
    5          1             0        1.507614   -0.246120    0.425631
    6          9             0       -0.633675   -1.297176   -0.551308
    7          1             0       -0.706393   -0.981144    1.449632
    8          1             0       -1.507614    0.246120    0.425631
 ---------------------------------------------------------------------

 The electronic state is 1-A.
 Alpha  occ. eigenvalues --  -24.67604 -24.67604 -10.26859 -10.26835  -1.18948
 Alpha  occ. eigenvalues --   -1.17825  -0.76970  -0.63758  -0.51765  -0.51654
 Alpha  occ. eigenvalues --   -0.48669  -0.45910  -0.45326  -0.38537  -0.34283
 Alpha  occ. eigenvalues --   -0.34194  -0.32312
 Alpha virt. eigenvalues --    0.09483   0.11169   0.11519   0.14985   0.17078
 Alpha virt. eigenvalues --    0.17630   0.23042   0.50617   0.52525   0.54382
 Alpha virt. eigenvalues --    0.57979   0.63554   0.66149   0.77389   0.82767

 Mulliken atomic charges:
              1
     1  C    0.025794
     2  C    0.025794
     3  F   -0.307072
     4  H    0.131859
     5  H    0.149419
     6  F   -0.307072
     7  H    0.131859
     8  H    0.149419
 Sum of Mulliken charges=   0.00000

 Dipole moment (field-independent basis, Debye):
    X=     0.0000    Y=     0.0000    Z=     2.4471  Tot=     2.4471
 Quadrupole moment (field-independent basis, Debye-Ang):
   XX=   -21.5091   YY=   -25.3392   ZZ=   -21.9017
   XY=    -1.5212   XZ=     0.0000   YZ=     0.0000

 1\1\GINC-DCOPT241\FOpt\RB3LYP\6-31G(d)\C2H4F2\WSCHNEI1\29-Oct-2007\0\\
 #N B3LYP/6-31G(d) opt\\C2H4F2 Scan\\0,1\C,0.001930604,0.0036891122,0.0
 145071152\C,-0.0022295629,-0.0035165082,1.5240928848\F,1.2917421446,0.
 1062535093,2.0101585101\H,-0.5932289918,0.8432689171,1.8978201274\H,-0
 .4392422101,-0.9380206205,1.895581698\F,0.553852834,-1.171808267,-0.47
 15585101\H,-1.0269068003,0.0921169186,-0.3592201274\H,0.5927285816,0.8
 494052226,-0.356981698\\Version=AM64L-G03RevD.01\State=1-A\HF=-278.278
 5993\RMSD=6.250e-09\RMSF=6.042e-05\Thermal=0.\Dipole=-0.8337829,0.4813

 Normal termination of Gaussian 03 at Mon Oct 29 18:57:51 2007.
