 Gaussian 03, Revision D.01,
 Gaussian 03:  AM64L-G03RevD.01 13-Oct-2005

 ---------------------
 #P B3LYP/6-31G(d) opt
 ---------------------

 ------------
 t-C2H4F2 PBE
 ------------
 Symbolic Z-matrix:
 Charge =  0 Multiplicity = 1

 SCF Done:  E(RB+HF-LYP) =  -278.276667177     A.U. after   11 cycles
 SCF Done:  E(RB+HF-LYP) =  -278.277956859     A.U. after   12 cycles
 SCF Done:  E(RB+HF-LYP) =  -278.277992913     A.U. after   11 cycles
 Optimization completed.
    -- Stationary point found.

                         Standard orientation:
 ---------------------------------------------------------------------
 Center     Atomic     Atomic              Coordinates (Angstroms)
 Number     Number      Type              X           Y           Z
 ---------------------------------------------------------------------
    1          6             0       -0.424360    0.630623    0.000005
    2          6             0        0.424360   -0.630623    0.000005
    3          9             0       -0.424360   -1.729156   -0.000006
    4          1             0        1.060258   -0.665203   -0.891614
    5          1             0        1.060240   -0.665192    0.891638
    6          9             0        0.424360    1.729156   -0.000006
    7          1             0       -1.060258    0.665203   -0.891614
    8          1             0       -1.060240    0.665192    0.891638
 ---------------------------------------------------------------------

 The electronic state is 1-A.
 Alpha  occ. eigenvalues --  -24.68271 -24.68271 -10.26786 -10.26763  -1.19209
 Alpha  occ. eigenvalues --   -1.18664  -0.76378  -0.64132  -0.52147  -0.51401
 Alpha  occ. eigenvalues --   -0.48829  -0.46394  -0.45365  -0.39051  -0.35321
 Alpha  occ. eigenvalues --   -0.33449  -0.32683
 Alpha virt. eigenvalues --    0.07344   0.10157   0.13362   0.14407   0.18924
 Alpha virt. eigenvalues --    0.19664   0.24217   0.50717   0.52543   0.54902
 Alpha virt. eigenvalues --    0.54956   0.61506   0.69509   0.78826   0.82599

 Mulliken atomic charges:
              1
     1  C    0.015651
     2  C    0.015651
     3  F   -0.310568
     4  H    0.147459
     5  H    0.147458
     6  F   -0.310568
     7  H    0.147459
     8  H    0.147458
 Sum of Mulliken charges=   0.00000

 Dipole moment (field-independent basis, Debye):
    X=     0.0000    Y=     0.0000    Z=     0.0000  Tot=     0.0000
 Quadrupole moment (field-independent basis, Debye-Ang):
   XX=   -21.6465   YY=   -28.0778   ZZ=   -21.3261
   XY=    -2.5196   XZ=     0.0000   YZ=     0.0000

 1\1\GINC-DCOPT241\FOpt\RB3LYP\6-31G(d)\C2H4F2\WSCHNEI1\29-Oct-2007\0\\
 #P B3LYP/6-31G(d) opt\\t-C2H4F2 PBE\\0,1\C,0.0105984123,0.000027709,0.
 0092645979\C,-0.0105984123,0.000027709,1.5293354021\F,1.3006074809,0.0
 000392488,1.9852285353\H,-0.5241647904,0.8916471076,1.9059146984\H,-0.
 5241564644,-0.8916049135,1.9058957416\F,-1.3006074809,0.0000392488,-0.
 4466285353\H,0.5241647904,0.8916471076,-0.3673146984\H,0.5241564644,-0
 .8916049135,-0.3672957416\\Version=AM64L-G03RevD.01\State=1-A\HF=-278.
 2779929\RMSD=2.270e-09\RMSF=2.813e-04\Thermal=0.\Dipole=0.,-0.0000115,

 Normal termination of Gaussian 03 at Mon Oct 29 18:56:30 2007.
