 Gaussian 03, Revision D.01,
 Gaussian 03:  AM64L-G03RevD.01 13-Oct-2005

 ------------------------------------------
 #N B3LYP/6-31G(d) opt=(ts,calcfc,z-matrix)
 ------------------------------------------

 ------------------------------
 C2H4F2 transition state search
 ------------------------------
 Symbolic Z-matrix:
 Charge =  0 Multiplicity = 1

 SCF Done:  E(RB+HF-LYP) =  -278.271280289     A.U. after   12 cycles

  Exact polarizability:  23.503   0.077  22.618   0.167  -0.042  22.323
 Approx polarizability:  30.147   2.444  29.076   0.100   0.035  29.491

 SCF Done:  E(RB+HF-LYP) =  -278.273467027     A.U. after   13 cycles
 SCF Done:  E(RB+HF-LYP) =  -278.273473131     A.U. after   12 cycles
 Optimization completed.
    -- Stationary point found.

                         Standard orientation:
 ---------------------------------------------------------------------
 Center     Atomic     Atomic              Coordinates (Angstroms)
 Number     Number      Type              X           Y           Z
 ---------------------------------------------------------------------
    1          6             0       -0.617291    0.453511    0.299643
    2          6             0        0.617384   -0.453155    0.299967
    3          9             0        1.684192    0.189117   -0.317233
    4          1             0        0.932440   -0.723716    1.314151
    5          1             0        0.377214   -1.365322   -0.257867
    6          9             0       -1.684305   -0.189464   -0.317036
    7          1             0       -0.932154    0.724973    1.313645
    8          1             0       -0.377046    1.365048   -0.259163
 ---------------------------------------------------------------------

 The electronic state is 1-A.
 Alpha  occ. eigenvalues --  -24.67742 -24.67739 -10.26793 -10.26772  -1.18775
 Alpha  occ. eigenvalues --   -1.18137  -0.76258  -0.64098  -0.51793  -0.51214
 Alpha  occ. eigenvalues --   -0.48581  -0.45642  -0.45622  -0.38738  -0.34860
 Alpha  occ. eigenvalues --   -0.33249  -0.32472
 Alpha virt. eigenvalues --    0.07604   0.09371   0.13060   0.14794   0.19053
 Alpha virt. eigenvalues --    0.19606   0.23936   0.51950   0.52097   0.53229
 Alpha virt. eigenvalues --    0.59075   0.60684   0.73363   0.80925   0.81476

 Mulliken atomic charges:
              1
     1  C    0.015066
     2  C    0.015114
     3  F   -0.316657
     4  H    0.141952
     5  H    0.159624
     6  F   -0.316747
     7  H    0.141998
     8  H    0.159650
 Sum of Mulliken charges=   0.00000

 Dipole moment (field-independent basis, Debye):
    X=     0.0008    Y=     0.0010    Z=     1.4141  Tot=     1.4141
 Quadrupole moment (field-independent basis, Debye-Ang):
   XX=   -27.8640   YY=   -21.0340   ZZ=   -21.5087
   XY=    -1.5110   XZ=     0.0004   YZ=     0.0000

 1\1\GINC-DDCOPT135\FTS\RB3LYP\6-31G(d)\C2H4F2\WSCHNEI1\29-Oct-2007\1\\
 #N B3LYP/6-31G(d) opt=(ts,calcfc,z-matrix)\\C2H4F2 transition state se
 arch\\0,1\C\C,1,r1\F,2,r2,1,A1\H,2,r3,1,A2,3,D1,0\H,2,r4,1,A3,3,D2,0\F
 ,1,r5,2,A4,3,D3,0\H,1,r6,2,A5,6,D4,0\H,1,r7,2,A6,6,D5,0\\r1=1.53181799
 \r2=1.38979432\r5=1.39004587\r3=1.09591661\r4=1.09586048\r6=1.09591517
 \r7=1.09584746\A1=110.18641075\A2=112.21220603\A3=108.41618625\A4=110.
 18305882\A5=112.20928887\A6=108.40558762\D1=120.02938765\D2=-119.30396
 84\D3=123.55318142\D4=120.03446593\D5=-119.29423925\\Version=AM64L-G03

 Normal termination of Gaussian 03 at Mon Oct 29 19:15:47 2007.
