 Gaussian 03, Revision B.05,
 Gaussian 03:  x86-Linux-G03RevB.05 24-Oct-2003

 ---------------------------------------
 #P HF/3-21G OPT GFINPUT POP=FULL 6D 10F
 ---------------------------------------

 --
 HF
 --
 Symbolic Z-matrix:
 Charge =  0 Multiplicity = 1

 SCF Done:  E(RHF) =  -99.4511963813     A.U. after    8 cycles
 SCF Done:  E(RHF) =  -99.4602187506     A.U. after    9 cycles
 SCF Done:  E(RHF) =  -99.4602189428     A.U. after    6 cycles
 Optimization completed.
    -- Stationary point found.

                         Standard orientation:
 ---------------------------------------------------------------------
 Center     Atomic     Atomic              Coordinates (Angstroms)
 Number     Number      Type              X           Y           Z
 ---------------------------------------------------------------------
    1          9             0        0.000000    0.000000    0.093745
    2          1             0        0.000000    0.000000   -0.843709
 ---------------------------------------------------------------------

 The electronic state is 1-SG.
 Alpha  occ. eigenvalues --  -26.11516  -1.54681  -0.69881  -0.59745  -0.59745
 Alpha virt. eigenvalues --    0.26229   1.20608   2.23463   2.23463   2.42716
 Alpha virt. eigenvalues --    3.67342

 Mulliken atomic charges:
              1
     1  F   -0.450146
     2  H    0.450146
 Sum of Mulliken charges=   0.00000

 Dipole moment (field-independent basis, Debye):
    X=     0.0000    Y=     0.0000    Z=    -2.1735  Tot=     2.1735
 Quadrupole moment (field-independent basis, Debye-Ang):
   XX=    -5.1732   YY=    -5.1732   ZZ=    -3.2778
   XY=     0.0000   XZ=     0.0000   YZ=     0.0000

 Normal termination of Gaussian 03 at Sun Sep 16 22:15:18 2007.
