 Gaussian 03, Revision B.05,
 Gaussian 03:  x86-Linux-G03RevB.05 24-Oct-2003

 -------------------------
 #P HF/STO-3G OPT pop=Full
 -------------------------

 --
 HF
 --
 Symbolic Z-matrix:
 Charge =  0 Multiplicity = 1

 SCF Done:  E(RHF) =  -98.5649670220     A.U. after    6 cycles
 SCF Done:  E(RHF) =  -98.5718643713     A.U. after    6 cycles
 SCF Done:  E(RHF) =  -98.5728473996     A.U. after    5 cycles
 Optimization completed.
    -- Stationary point found.

                         Standard orientation:
 ---------------------------------------------------------------------
 Center     Atomic     Atomic              Coordinates (Angstroms)
 Number     Number      Type              X           Y           Z
 ---------------------------------------------------------------------
    1          9             0        0.000000    0.000000    0.095559
    2          1             0        0.000000    0.000000   -0.860027
 ---------------------------------------------------------------------

 The electronic state is 1-SG.
 Alpha  occ. eigenvalues --  -25.90352  -1.45982  -0.57361  -0.46312  -0.46312
 Alpha virt. eigenvalues --    0.58970

 Mulliken atomic charges:
              1
     1  F   -0.192203
     2  H    0.192203
 Sum of Mulliken charges=   0.00000

 Dipole moment (field-independent basis, Debye):
    X=     0.0000    Y=     0.0000    Z=    -1.2519  Tot=     1.2519
 Quadrupole moment (field-independent basis, Debye-Ang):
   XX=    -4.6405   YY=    -4.6405   ZZ=    -3.4732
   XY=     0.0000   XZ=     0.0000   YZ=     0.0000

 Normal termination of Gaussian 03 at Sun Sep 16 22:01:23 2007.
