 Gaussian 03, Revision D.01,
 Gaussian 03:  AM64L-G03RevD.01 13-Oct-2005

 ----------------------
 #N PBEPBE/6-31G(d) opt
 ----------------------

 -----------
 e-C2H4F2 G2
 -----------
 Symbolic Z-matrix:
 Charge =  0 Multiplicity = 1

 SCF Done:  E(RPBE-PBE) =  -277.963729337     A.U. after   12 cycles
 SCF Done:  E(RPBE-PBE) =  -277.964305825     A.U. after   11 cycles
 SCF Done:  E(RPBE-PBE) =  -277.964416472     A.U. after    9 cycles
 SCF Done:  E(RPBE-PBE) =  -277.964419079     A.U. after    7 cycles
 Optimization completed.
    -- Stationary point found.

                         Standard orientation:
 ---------------------------------------------------------------------
 Center     Atomic     Atomic              Coordinates (Angstroms)
 Number     Number      Type              X           Y           Z
 ---------------------------------------------------------------------
    1          6             0        0.000000    0.779220    0.628963
    2          6             0        0.000000   -0.779220    0.628963
    3          9             0        0.000000   -1.250616   -0.674105
    4          1             0        0.895546   -1.172227    1.146584
    5          1             0       -0.895546   -1.172227    1.146584
    6          9             0        0.000000    1.250616   -0.674105
    7          1             0       -0.895546    1.172227    1.146584
    8          1             0        0.895546    1.172227    1.146584
 ---------------------------------------------------------------------

 The electronic state is 1-A1.
 Alpha  occ. eigenvalues --  -24.24992 -24.24992  -9.97620  -9.97612  -1.08591
 Alpha  occ. eigenvalues --   -1.06873  -0.68284  -0.56580  -0.45330  -0.45134
 Alpha  occ. eigenvalues --   -0.42605  -0.40540  -0.38728  -0.30357  -0.29000
 Alpha  occ. eigenvalues --   -0.26734  -0.26064
 Alpha virt. eigenvalues --    0.02593   0.07517   0.08545   0.12129   0.16439
 Alpha virt. eigenvalues --    0.18423   0.20086   0.46499   0.50506   0.51637
 Alpha virt. eigenvalues --    0.52239   0.54927   0.72389   0.74150   0.76180

 Mulliken atomic charges:
              1
     1  C   -0.030756
     2  C   -0.030756
     3  F   -0.264996
     4  H    0.147876
     5  H    0.147876
     6  F   -0.264996
     7  H    0.147876
     8  H    0.147876
 Sum of Mulliken charges=   0.00000

 Dipole moment (field-independent basis, Debye):
    X=     0.0000    Y=     0.0000    Z=     2.6637  Tot=     2.6637
 Quadrupole moment (field-independent basis, Debye-Ang):
   XX=   -21.5625   YY=   -24.0063   ZZ=   -21.9490
   XY=     0.0000   XZ=     0.0000   YZ=     0.0000

 Normal termination of Gaussian 03 at Mon Oct 29 18:11:17 2007.
