 Gaussian 03, Revision D.01,
 Gaussian 03:  AM64L-G03RevD.01 13-Oct-2005

 ----------------------
 #N PBEPBE/6-31G(d) opt
 ----------------------

 -----------
 C2H4F2 Scan
 -----------
 Symbolic Z-matrix:
 Charge =  0 Multiplicity = 1

 SCF Done:  E(RPBE-PBE) =  -277.975194352     A.U. after   12 cycles
 SCF Done:  E(RPBE-PBE) =  -277.976040195     A.U. after   13 cycles
 SCF Done:  E(RPBE-PBE) =  -277.976214088     A.U. after   11 cycles
 SCF Done:  E(RPBE-PBE) =  -277.976219145     A.U. after    7 cycles
 SCF Done:  E(RPBE-PBE) =  -277.976220149     A.U. after    7 cycles
 Optimization completed.
    -- Stationary point found.

                         Standard orientation:
 ---------------------------------------------------------------------
 Center     Atomic     Atomic              Coordinates (Angstroms)
 Number     Number      Type              X           Y           Z
 ---------------------------------------------------------------------
    1          6             0       -0.632191   -0.415450    0.514851
    2          6             0        0.632191    0.415450    0.514851
    3          9             0        0.632191    1.307417   -0.553654
    4          1             0        0.698965    0.985535    1.462768
    5          1             0        1.516640   -0.243835    0.431014
    6          9             0       -0.632191   -1.307417   -0.553654
    7          1             0       -0.698965   -0.985535    1.462768
    8          1             0       -1.516640    0.243835    0.431014
 ---------------------------------------------------------------------

 The electronic state is 1-A.
 Alpha  occ. eigenvalues --  -24.25049 -24.25049  -9.97609  -9.97596  -1.08271
 Alpha  occ. eigenvalues --   -1.07188  -0.69255  -0.56746  -0.45567  -0.45556
 Alpha  occ. eigenvalues --   -0.42544  -0.40023  -0.39036  -0.31654  -0.28129
 Alpha  occ. eigenvalues --   -0.27988  -0.26416
 Alpha virt. eigenvalues --    0.06155   0.08076   0.08299   0.12101   0.14280
 Alpha virt. eigenvalues --    0.14302   0.19559   0.46645   0.48119   0.50955
 Alpha virt. eigenvalues --    0.53963   0.59937   0.62443   0.72290   0.77868

 Mulliken atomic charges:
              1
     1  C   -0.026828
     2  C   -0.026828
     3  F   -0.272473
     4  H    0.140954
     5  H    0.158348
     6  F   -0.272473
     7  H    0.140954
     8  H    0.158348
 Sum of Mulliken charges=   0.00000

 Dipole moment (field-independent basis, Debye):
    X=     0.0000    Y=     0.0000    Z=     2.2583  Tot=     2.2583
 Quadrupole moment (field-independent basis, Debye-Ang):
   XX=   -21.6143   YY=   -25.1521   ZZ=   -21.9128
   XY=    -1.4228   XZ=     0.0000   YZ=     0.0000

 Normal termination of Gaussian 03 at Mon Oct 29 18:12:19 2007.
