 Gaussian 03, Revision D.01,
 Gaussian 03:  AM64L-G03RevD.01 13-Oct-2005

 ----------------------
 #P PBEPBE/6-31G(d) opt
 ----------------------

 ------------
 t-C2H4F2 PBE
 ------------
 Symbolic Z-matrix:
 Charge =  0 Multiplicity = 1

 SCF Done:  E(RPBE-PBE) =  -277.974685369     A.U. after   11 cycles
 SCF Done:  E(RPBE-PBE) =  -277.975081007     A.U. after   13 cycles
 SCF Done:  E(RPBE-PBE) =  -277.975095967     A.U. after   11 cycles
 SCF Done:  E(RPBE-PBE) =  -277.975103909     A.U. after   10 cycles
 SCF Done:  E(RPBE-PBE) =  -277.975103996     A.U. after   11 cycles
 Optimization completed.
    -- Stationary point found.

                         Standard orientation:
 ---------------------------------------------------------------------
 Center     Atomic     Atomic              Coordinates (Angstroms)
 Number     Number      Type              X           Y           Z
 ---------------------------------------------------------------------
    1          6             0        0.425566    0.632522    0.000522
    2          6             0       -0.425566   -0.632522    0.000522
    3          9             0        0.425566   -1.736536   -0.000558
    4          1             0       -1.068197   -0.663475    0.899666
    5          1             0       -1.069421   -0.662679   -0.897774
    6          9             0       -0.425566    1.736536   -0.000558
    7          1             0        1.068197    0.663475    0.899666
    8          1             0        1.069421    0.662679   -0.897774
 ---------------------------------------------------------------------

 The electronic state is 1-A.
 Alpha  occ. eigenvalues --  -24.25691 -24.25691  -9.97533  -9.97522  -1.08497
 Alpha  occ. eigenvalues --   -1.07970  -0.68637  -0.57085  -0.45747  -0.45448
 Alpha  occ. eigenvalues --   -0.42720  -0.40490  -0.38748  -0.32183  -0.28825
 Alpha  occ. eigenvalues --   -0.27624  -0.26822
 Alpha virt. eigenvalues --    0.03445   0.07858   0.10595   0.11667   0.15063
 Alpha virt. eigenvalues --    0.16169   0.20313   0.47888   0.48203   0.50519
 Alpha virt. eigenvalues --    0.51947   0.57464   0.65713   0.74065   0.77843

 Mulliken atomic charges:
              1
     1  C   -0.037306
     2  C   -0.037306
     3  F   -0.275877
     4  H    0.156579
     5  H    0.156604
     6  F   -0.275877
     7  H    0.156579
     8  H    0.156604
 Sum of Mulliken charges=   0.00000

 Dipole moment (field-independent basis, Debye):
    X=     0.0000    Y=     0.0000    Z=     0.0023  Tot=     0.0023
 Quadrupole moment (field-independent basis, Debye-Ang):
   XX=   -21.6956   YY=   -27.6513   ZZ=   -21.4260
   XY=     2.2720   XZ=     0.0000   YZ=     0.0000

 Normal termination of Gaussian 03 at Mon Oct 29 18:10:39 2007.
