 Gaussian 03, Revision D.01,
 Gaussian 03:  AM64L-G03RevD.01 13-Oct-2005

 ----------------------------------
 #N PBEPBE/6-31G(d) opt=(ts,calcfc)
 ----------------------------------

 ------------------------------
 C2H4F2 transition state search
 ------------------------------
 Symbolic Z-matrix:
 Charge =  0 Multiplicity = 1

 SCF Done:  E(RPBE-PBE) =  -277.967800459     A.U. after   12 cycles

  Exact polarizability:  24.235  -0.063  23.249   0.177  -0.052  22.776
 Approx polarizability:  36.564   3.108  34.370   0.113   0.039  34.737

 SCF Done:  E(RPBE-PBE) =  -277.970775126     A.U. after   12 cycles
 SCF Done:  E(RPBE-PBE) =  -277.970798554     A.U. after   10 cycles
 SCF Done:  E(RPBE-PBE) =  -277.970797408     A.U. after    8 cycles
 SCF Done:  E(RPBE-PBE) =  -277.970797185     A.U. after   12 cycles
 Optimization completed.
    -- Stationary point found.

                         Standard orientation:
 ---------------------------------------------------------------------
 Center     Atomic     Atomic              Coordinates (Angstroms)
 Number     Number      Type              X           Y           Z
 ---------------------------------------------------------------------
    1          6             0        0.619425   -0.454350    0.296967
    2          6             0       -0.619419    0.454367    0.296950
    3          9             0       -1.695071   -0.188866   -0.314665
    4          1             0       -0.928711    0.737786    1.319862
    5          1             0       -0.370070    1.370862   -0.269629
    6          9             0        1.695065    0.188848   -0.314675
    7          1             0        0.928727   -0.737721    1.319888
    8          1             0        0.370075   -1.370867   -0.269566
 ---------------------------------------------------------------------

 The electronic state is 1-A.
 Alpha  occ. eigenvalues --  -24.25196 -24.25196  -9.97542  -9.97532  -1.08126
 Alpha  occ. eigenvalues --   -1.07511  -0.68546  -0.57068  -0.45519  -0.45232
 Alpha  occ. eigenvalues --   -0.42637  -0.39542  -0.39272  -0.31896  -0.28529
 Alpha  occ. eigenvalues --   -0.27220  -0.26581
 Alpha virt. eigenvalues --    0.04036   0.06715   0.09960   0.11857   0.15958
 Alpha virt. eigenvalues --    0.16031   0.20403   0.47813   0.47917   0.50048
 Alpha virt. eigenvalues --    0.55214   0.57237   0.69720   0.75911   0.76621

 Mulliken atomic charges:
              1
     1  C   -0.035889
     2  C   -0.035892
     3  F   -0.281957
     4  H    0.151054
     5  H    0.166792
     6  F   -0.281953
     7  H    0.151052
     8  H    0.166792
 Sum of Mulliken charges=   0.00000

 Dipole moment (field-independent basis, Debye):
    X=     0.0000    Y=     0.0000    Z=     1.2894  Tot=     1.2894
 Quadrupole moment (field-independent basis, Debye-Ang):
   XX=   -27.4844   YY=   -21.1551   ZZ=   -21.5776
   XY=    -1.3473   XZ=     0.0000   YZ=     0.0000

 1\1\GINC-DCOPT280\FTS\RPBEPBE\6-31G(d)\C2H4F2\WSCHNEI1\29-Oct-2007\0\\
 #N PBEPBE/6-31G(d) opt=(ts,calcfc)\\C2H4F2 transition state search\\0,
 1\C,-0.0124963317,-0.006017796,0.0078108546\C,0.0133959821,-0.00392336
 99,1.5439843017\F,1.3271265916,0.0505966999,2.0087284374\H,-0.53448335
 09,0.8571380413,1.9691164236\H,-0.4608312382,-0.939616768,1.8943206227
 \F,-0.7096955015,-1.1170255667,-0.4658825119\H,-0.4957218354,0.8998478
 815,-0.4023538058\H,1.032816646,-0.0489646449,-0.3508180676\\Version=A
 M64L-G03RevD.01\State=1-A\HF=-277.9707972\RMSD=2.170e-09\RMSF=4.440e-0

 Normal termination of Gaussian 03 at Mon Oct 29 18:15:29 2007.
